# Bulk Water Properties
# Trajectory calculated using DL_POLY Classic v1.9

# Potential uses SPC/Fw parameters:
# 
# Yujie Wu, Harald L. Tepper and Gregory A. Voth
# "Flexible simple point-charge water model with improved liquid-state properties", Journal of Chemical Physics 124 024503 (2006)
# http://dx.doi.org/10.1063/1.2136877
# 
#	  sigma(O) =    3.165492 Angstroms
#	epsilon(O) =    0.6503	 kJ/mol
#	 charge(O) =   -0.82	 e
#	 charge(H) =    0.41	 e
#	    k(O-H) = 4431.53	 kJ mol-1 Angstrom-2
#	    r(O-H) =    1.0	 Angstroms
#	  k(H-O-H) =  317.5656	 kJ mol-1 radian-2
#     theta(H-O-H) =  113.24	 degrees

#------------------------#
#  Define Master Terms   #
#------------------------#

Master
  Bond   OH   Harmonic  4431.53  1.0
  Angle  HOH  Harmonic  317.5656 113.24
EndMaster

#------------------------#
#     Define Species     #
#------------------------#

Species 'Water'
  # Atoms
  Atom    1    H     0.757    0.013    0.217   'HW'
  Atom    2    O     0.015   -0.009   -0.373   'OW'
  Atom    3    H    -0.771   -0.003    0.157   'HW'

  # Intramolecular Terms
  Bond  1    2  @OH
  Bond  3    2  @OH
  Angle 1    2    3  @HOH

  # Isotopologues
  Isotopologue  'Natural'  OW=0  HW=0
  Isotopologue  'Deuteriated'  OW=0  HW=2

  # Analysis Sites
  Site  'origin'
    Origin  2
    XAxis  1 3
    YAxis  3
  EndSite
  Site  'O'
    Origin  2
  EndSite
  Site  'H1'
    Origin  1
  EndSite
  Site  'H2'
    Origin  3
  EndSite
  Site  'COM'
    Origin  1  2  3
    OriginMassWeighted  True
  EndSite
EndSpecies

#------------------------#
#     Pair Potentials    #
#------------------------#

PairPotentials
  Range  9.000000
  Delta  0.050000
  Parameters  'OW'  -0.82      0.65	3.165492
  Parameters  'HW'  0.41       0.0      0.0
  GenerateAll  'LJ'
EndPairPotentials

#------------------------#
#  Define Configuration  #
#------------------------#

Configuration  'Bulk'
  Density  9.99999642E-02 atoms/A3
  Multiplier  267
  SpeciesInfo  'Water'  1.0
EndConfiguration

#------------------------#
#   Define Processing    #
#------------------------#

# Import 
Module  Import
  Configuration  'Bulk'
  ReadTrajectory  True
  # Trajectory file contains 95 frames
  TrajectoryFile  xyz  'dlpoly/water-267-298K.xyz'
EndModule

# Oxygen-oxygen radial distribution function
Module  CalculateRDF  'RDF(OW-OW)'
  Configuration  'Bulk'
  OriginSite  Water  'O'
  OtherSite  Water  'O'
  RMin  0.0
  RMax  20.0
  BinWidth  0.01
EndModule

Module DataTest
  Frequency  95
  Target  'RDF(OW-OW)'
  Data1D  'dlpoly/water-267-298K.aardf1_02_02'  RDF(OW-OW)_Bulk
  Threshold  1.4
EndModule

# Hydrogen-hydrogen (H1-H2, 1-3) radial distribution function, excluding intramolecular correlations
Module  CalculateRDF  'RDF(H1-H2)'
  Configuration  'Bulk'
  OriginSite  Water  'H1'
  OtherSite  Water  'H2'
  ExcludeSameMolecule  On
  RMin  0.0
  RMax  20.0
  BinWidth  0.01
EndModule

Module DataTest
  Frequency  95
  Target  'RDF(H1-H2)'
  Data1D  'dlpoly/water-267-298K.aardf1_01_03'  RDF(H1-H2)_Bulk
  Threshold  1.1
EndModule

# Center-of-mass radial distribution function
Module  CalculateRDF  'RDF(COM-COM)'
  Configuration  'Bulk'
  OriginSite  Water  'COM'
  OtherSite  Water  'COM'
  ExcludeSameMolecule  On
  RMin  0.0
  RMax  20.0
  BinWidth  0.05
EndModule

Module DataTest
  Frequency  95
  Target  'RDF(COM-COM)'
  Data1D  'dlpoly/water-267-298K.rdf11'  RDF(COM-COM)_Bulk
  Threshold  0.5
EndModule

Module  Analyse
  #Disabled
  Configuration  'Bulk'
  Analyser

    # Distance-Angle Map X-H / X-H...O
    Select  'X'

      Site  Water  'O'

      ForEach

        Select  'H'

          DynamicSite
            Element  'H'
          EndDynamicSite

	  SameMoleculeAsSite  'X'

          ForEach

	    Select  'O'

              Site  Water  'O'
              ExcludeSameMolecule  'X'

              ForEach

                Calculate  'rHO'
                  Distance  'H'  'O'
                EndCalculate

                Calculate  'aXHO'
                  Angle  'X'  'H'  'O'
                EndCalculate

                Collect2D  'DistanceAngleMap(H_O-OH_O)'
                  QuantityX  'rHO'
                  QuantityY  'aXHO'
                  RangeX  0.0  5.0  0.01
                  RangeY  0.0  180.0  1.0
                EndCollect2D

              EndForEach

            EndSelect

          EndForEach

        EndSelect

      EndForEach

    EndSelect

    # Perform necessary normalisation
    Process2D  'DistanceAngleMap(H_O-OH_O)'
      NormaliseToOne  On
      Save  On
      LabelX  '\\it{r}, \\sym{Angstrom}'
      LabelY  'Angle, \\sym{degree}'
      LabelValue  'Probability'
    EndProcess2D

  EndAnalyser

EndModule

Simulation
  # Prevent writing of restart file
  RestartFileFrequency  100
EndSimulation

