# Bulk Water Properties
# Trajectory calculated using DL_POLY Classic v1.9

# Potential uses SPC/Fw parameters:
# 
# Yujie Wu, Harald L. Tepper and Gregory A. Voth
# "Flexible simple point-charge water model with improved liquid-state properties", Journal of Chemical Physics 124 024503 (2006)
# http://dx.doi.org/10.1063/1.2136877
# 
#	  sigma(O) =    3.165492 Angstroms
#	epsilon(O) =    0.6503	 kJ/mol
#	 charge(O) =   -0.82	 e
#	 charge(H) =    0.41	 e
#	    k(O-H) = 4431.53	 kJ mol-1 Angstrom-2
#	    r(O-H) =    1.0	 Angstroms
#	  k(H-O-H) =  317.5656	 kJ mol-1 radian-2
#     theta(H-O-H) =  113.24	 degrees

#------------------------#
#  Define Master Terms   #
#------------------------#

Master
  Bond   OH   Harmonic  4431.53  1.0
  Angle  HOH  Harmonic  317.5656 113.24
EndMaster

#------------------------#
#     Define Species     #
#------------------------#

Species 'Water'
  # Atoms
  Atom    1    O     0.015   -0.009   -0.373   'OW'
  Atom    2    H     0.757    0.013    0.217   'HW'
  Atom    3    H    -0.771   -0.003    0.157   'HW'

  # Intramolecular Terms
  Bond  1    2  @OH
  Bond  1    3  @OH
  Angle 2    1    3  @HOH

  # Isotopologues
  Isotopologue  'Natural'  OW=0  HW=0
  Isotopologue  'Deuteriated'  OW=0  HW=2

  # Analysis Sites
  Site  'origin'
    Origin  1
    XAxis  2 3
    YAxis  3
  EndSite
  Site  'O'
    Origin  1
  EndSite
  Site  'H1'
    Origin  2
  EndSite
  Site  'H2'
    Origin  3
  EndSite
EndSpecies

#------------------------#
#     Pair Potentials    #
#------------------------#

PairPotentials
  Range  9.000000
  Delta  0.050000
  Parameters  'OW'  -0.82      0.65	3.165492
  Parameters  'HW'  0.41       0.0      0.0
  GenerateAll  'LJ'
EndPairPotentials

#------------------------#
#  Define Configuration  #
#------------------------#

Configuration  'Bulk'
  Density  9.99999642E-02 atoms/A3
  Multiplier  267
  SpeciesInfo  'Water'  1.0
EndConfiguration

#------------------------#
#   Define Processing    #
#------------------------#

# Import 
Module  Import
  Configuration  'Bulk'
  ReadTrajectory  True
  TrajectoryFile  xyz  'dlpoly/water-267-298K.xyz'
EndModule

Module  Analyse
  Configuration  'Bulk'
  Analyser

    Select

      Site  Water  'O'

      ForEach

        # COM RDF
        Select  'B'

          Site  Water  'O'
          #ExcludeSameMolecule  'A'

          ForEach

            Calculate  'rAB'
              Distance  'A'  'B'
            EndCalculate

            Collect1D  'RDF(OW-OW)'
              QuantityX  'rAB'
              RangeX  0.0  20.0  0.01
              LabelX  'r, Angstroms'  'Bins'
            EndCollect1D

          EndForEach

        EndSelect

      EndForEach

    EndSelect

    # Perform necessary normalisation
    Normalise1D  'RDF(OW-OW)'
      NSites  'A'
      Save  On
    EndNormalise1D

  EndAnalyser

EndModule

Simulation
  RestartFIleFrequency  1
EndSimulation

