
                    DL_POLY Classic 1.9

                              Running on    1 nodes


 ************************************************************************************************************************
 ************************************************************************************************************************
 ************************************************************************************************************************
 ***************     DL_POLY CONTROL file                                                                 ***************
 ************************************************************************************************************************
 ************************************************************************************************************************
 ************************************************************************************************************************


 SIMULATION CONTROL PARAMETERS


 simulation temperature           2.9800E+02

 Nose-Hoover 
 thermostat relaxation time       1.0000E-01

 simulation timestep              5.0000E-04

 selected number of timesteps       200000

 restart requested

 real space cut off               9.0000E+00

 real space cut off (vdw)         9.0000E+00

 border width of Verlet shell     5.0000E-01


 Electrostatics : Shifted Coulombic potential

 trajectory file option on  
 trajectory file start                   1
 trajectory file interval             1000
 trajectory file info key                0

 data printing interval                100

 data stacking interval               1000

 statistics file interval             1000

 user allocated job time (d)    ********

 job closure time        (s)    1000.000


SYSTEM SPECIFICATION

 energy units=kjoule/mol 


 number of molecular types               1

 molecular species type                  1


 name of species:             water                                   

 number of molecules                   267

 number of atoms/sites                   3


 atomic characteristics:

                      site     name          mass        charge    repeat    freeze

                         1     HW           1.00800     0.41000         1         0
                         2     OW          15.99900    -0.82000         1         0
                         3     HW           1.00800     0.41000         1         0

 number of chemical bonds                2


 chemical bond details:

                            key     index     index                            parameters

                           harm         1         2     4.431530E+03   1.012000E+00   0.000000E+00   0.000000E+00
                           harm         2         3     4.431530E+03   1.012000E+00   0.000000E+00   0.000000E+00

 number of bond angles                   1


 bond angle details:

                            key     index     index     index     f-const       angle

                           harm         1         2         3  3.1756E+02  113.240000    0.000000    0.000000    0.000000    0.000000


 number of specified pair potentials         3


                atom 1  atom 2      key                              parameters


                HW      HW        lj       0.00000E+00  0.00000E+00
                OW      HW        lj       0.00000E+00  1.58300E+00
                OW      OW        lj       6.50000E-01  3.16600E+00

 configuration file name: 

          box                                                                             


 selected image convention               1


 simulation cell vectors


                        20.000000    0.000000    0.000000
                         0.000000   20.000000    0.000000
                         0.000000    0.000000   20.000000


 system volume            8000.00000000    


 total degrees of freedom                      2400.
 rotational degrees of freedom                    0.
 shell pseudo degrees of freedom                  0.


 sample of starting configuration

      i       x(i)        y(i)        z(i)       vx(i)       vy(i)       vz(i)       fx(i)       fy(i)       fz(i)


      1  8.2608E+00  3.1793E+00  4.1764E+00 -1.9664E+01  1.1958E+01 -5.5736E+00  2.1022E+03 -1.2451E+04  7.4059E+03
     42 -4.9599E+00  6.1341E-01  6.9152E+00 -1.3911E+01 -1.9287E+01 -4.1987E+00 -2.0981E+03 -4.3175E+03 -5.8963E+02
     83 -6.8855E+00 -9.1209E+00 -5.6810E+00 -8.1919E+00  1.5304E+00 -6.7430E+00  2.3782E+03  1.4880E+03 -5.4705E+03
    124 -4.8728E-01 -9.0066E+00 -4.7724E+00  4.2177E+00 -1.0527E+01 -2.4249E+00 -1.1050E+03 -9.1613E+03  1.1365E+03
    165  8.3387E+00  7.2985E+00 -9.6070E+00  7.9905E+00  2.3966E+00 -8.5595E-01  6.0341E+03 -1.2326E+03 -1.2823E+04
    206 -6.3566E-01  1.7201E-01 -8.2188E+00  4.0067E-01 -2.1264E+00  8.4440E+00  8.2491E+03  5.0563E+02  1.4479E+03
    247 -2.1146E-02  6.9069E+00  1.0431E-02 -1.8558E+01 -1.4917E+01  1.3536E+01 -1.1033E+04  1.3837E+04  2.6766E+04
    288  5.6098E+00  2.2195E+00 -9.8882E+00  1.4783E+01 -1.8863E+01  1.6618E+01 -3.8277E+03  3.3643E+03 -3.3191E+02
    329  2.5044E+00 -3.7055E+00 -7.9527E+00 -3.4350E-01 -2.0267E+00  3.6692E+00 -5.2939E+03  8.5438E+03 -1.7386E+04
    370  1.3478E+00 -9.9651E+00  1.0164E+00 -8.9568E+00  1.9396E+01  1.4498E+01  8.4308E+03 -3.2113E+03 -5.0057E+03
    411 -5.3995E+00 -7.4439E+00 -1.3942E+00  1.0013E+01 -1.7953E+01 -3.0893E+00 -8.7455E+01 -3.0278E+03  1.3705E+03
    452  6.8088E+00 -6.1485E+00  9.2854E+00 -3.2279E+00 -3.6347E-01 -1.0014E+01  1.8635E+03  1.8088E+03 -4.9448E+02
    493 -3.3775E+00 -3.7014E+00 -6.4831E+00  9.7390E+00 -9.2872E+00 -9.2873E-02  1.4254E+03 -1.7018E+03  1.2347E+04
    534  5.6677E+00  4.9687E+00  8.5150E+00 -4.7821E+00 -6.8477E+00  7.5303E+00 -3.3554E+03 -5.8295E+03 -7.0951E+03
    575 -7.8853E+00 -6.5797E+00 -8.8843E+00  9.9428E-01  2.4631E+00 -1.3216E+00  6.8466E+03 -7.8704E+02  1.2428E+04
    616  9.0744E+00  8.7800E+00  5.7682E+00  2.3116E+01  1.4083E+01 -8.9719E-01 -3.0180E+03  1.6915E+04 -1.1338E+04
    657 -9.4571E+00 -3.7731E+00  5.1883E+00 -7.9031E+00 -1.2933E+01  3.5842E+00 -9.3078E+02  1.0866E+03 -3.6936E+02
    698 -9.2910E+00 -2.5091E+00  2.6019E+00  6.4915E+00  1.1352E+00 -2.6631E-01  1.2283E+04  1.5579E+04  8.1754E+03
    739  9.3513E-01  9.7738E+00  6.6318E+00 -1.4404E+01 -3.7703E+00  1.4140E+00 -3.1005E+03  5.8637E+03 -3.8838E+02
    780  5.6105E+00  1.5512E+00  1.1896E+00 -1.9057E+01  8.7823E+00  1.6533E+01 -6.5515E+03 -2.1604E+03  8.8192E+03


long range correction for: vdw energy    -0.669928E+02
                         : vdw pressure  -0.274300E+00

 time elapsed since job start =           0.005 seconds

 ------------------------------------------------------------------------------------------------------------------------

     step     eng_tot    temp_tot     eng_cfg     eng_vdw     eng_cou     eng_bnd     eng_ang     eng_dih     eng_tet
 time          eng_pv    temp_rot     vir_cfg     vir_vdw     vir_cou     vir_bnd     vir_ang     vir_con     vir_tet
 cpu time      volume    temp_shl     eng_shl     vir_shl       alpha        beta       gamma     vir_pmf       press

 ------------------------------------------------------------------------------------------------------------------------
   105100 -8.0010E+03  2.9715E+02 -1.0910E+04  2.6389E+03 -1.5511E+04  1.1397E+03  8.2279E+02  0.0000E+00  0.0000E+00
  52.550p -7.6767E+03  0.0000E+00  5.1243E+03 -5.7135E+04  1.6304E+04  4.5956E+04  0.0000E+00  0.0000E+00  0.0000E+00
   0.861s  8.0000E+03  0.0000E+00  0.0000E+00  0.0000E+00  9.0000E+01  9.0000E+01  9.0000E+01  0.0000E+00  5.4982E-01

  rolling -8.0011E+03  2.9875E+02 -1.0950E+04  2.6629E+03 -1.5471E+04  1.1392E+03  7.1949E+02  0.0000E+00  0.0000E+00
 averages -7.8990E+03  0.0000E+00  5.7519E+03 -5.7348E+04  1.6354E+04  4.6746E+04  0.0000E+00  0.0000E+00  0.0000E+00
           8.0000E+03  0.0000E+00  0.0000E+00  0.0000E+00  9.0000E+01  9.0000E+01  9.0000E+01  0.0000E+00  1.4315E-01
 ------------------------------------------------------------------------------------------------------------------------
   105200 -8.0013E+03  2.9225E+02 -1.0924E+04  2.4844E+03 -1.5216E+04  1.0542E+03  7.5396E+02  0.0000E+00  0.0000E+00
  52.600p -7.9210E+03  0.0000E+00  5.5715E+03 -5.5038E+04  1.6046E+04  4.4563E+04  0.0000E+00  0.0000E+00  0.0000E+00
   1.711s  8.0000E+03  0.0000E+00  0.0000E+00  0.0000E+00  9.0000E+01  9.0000E+01  9.0000E+01  0.0000E+00  1.7769E-01

  rolling -8.0010E+03  2.9988E+02 -1.0952E+04  2.6549E+03 -1.5470E+04  1.1396E+03  7.2362E+02  0.0000E+00  0.0000E+00
 averages -7.8933E+03  0.0000E+00  5.7841E+03 -5.7243E+04  1.6300E+04  4.6727E+04  0.0000E+00  0.0000E+00  0.0000E+00
           8.0000E+03  0.0000E+00  0.0000E+00  0.0000E+00  9.0000E+01  9.0000E+01  9.0000E+01  0.0000E+00  1.3658E-01
 ------------------------------------------------------------------------------------------------------------------------
   105300 -8.0007E+03  3.0147E+02 -1.1074E+04  2.3250E+03 -1.5224E+04  1.1436E+03  6.8071E+02  0.0000E+00  0.0000E+00
  52.650p -9.9641E+03  0.0000E+00  1.1709E+04 -5.2872E+04  1.6693E+04  4.7888E+04  0.0000E+00  0.0000E+00  0.0000E+00
   2.520s  8.0000E+03  0.0000E+00  0.0000E+00  0.0000E+00  9.0000E+01  9.0000E+01  9.0000E+01  0.0000E+00 -3.8873E+00

  rolling -8.0010E+03  2.9969E+02 -1.0950E+04  2.6256E+03 -1.5438E+04  1.1370E+03  7.2587E+02  0.0000E+00  0.0000E+00
 averages -7.9804E+03  0.0000E+00  6.0418E+03 -5.6855E+04  1.6266E+04  4.6631E+04  0.0000E+00  0.0000E+00  0.0000E+00
           8.0000E+03  0.0000E+00  0.0000E+00  0.0000E+00  9.0000E+01  9.0000E+01  9.0000E+01  0.0000E+00 -4.2098E-02
 ------------------------------------------------------------------------------------------------------------------------
   105400 -8.0014E+03  2.8585E+02 -1.0963E+04  2.5147E+03 -1.5205E+04  1.0744E+03  6.5284E+02  0.0000E+00  0.0000E+00
  52.700p -7.9922E+03  0.0000E+00  5.3478E+03 -5.5363E+04  1.6371E+04  4.4340E+04  0.0000E+00  0.0000E+00  0.0000E+00
   3.309s  8.0000E+03  0.0000E+00  0.0000E+00  0.0000E+00  9.0000E+01  9.0000E+01  9.0000E+01  0.0000E+00  2.4328E-01

  rolling -8.0010E+03  2.9876E+02 -1.0948E+04  2.5890E+03 -1.5394E+04  1.1327E+03  7.2408E+02  0.0000E+00  0.0000E+00
 averages -8.1082E+03  0.0000E+00  6.3835E+03 -5.6370E+04  1.6271E+04  4.6483E+04  0.0000E+00  0.0000E+00  0.0000E+00
           8.0000E+03  0.0000E+00  0.0000E+00  0.0000E+00  9.0000E+01  9.0000E+01  9.0000E+01  0.0000E+00 -2.8809E-01
 ------------------------------------------------------------------------------------------------------------------------
   105500 -8.0012E+03  2.8879E+02 -1.0988E+04  2.4211E+03 -1.5225E+04  1.1030E+03  7.1221E+02  0.0000E+00  0.0000E+00
  52.750p -8.8796E+03  0.0000E+00  8.0808E+03 -5.4120E+04  1.6031E+04  4.6169E+04  0.0000E+00  0.0000E+00  0.0000E+00
   4.098s  8.0000E+03  0.0000E+00  0.0000E+00  0.0000E+00  9.0000E+01  9.0000E+01  9.0000E+01  0.0000E+00 -1.5829E+00

  rolling -8.0010E+03  2.9763E+02 -1.0948E+04  2.5621E+03 -1.5361E+04  1.1284E+03  7.2257E+02  0.0000E+00  0.0000E+00
 averages -8.2026E+03  0.0000E+00  6.6107E+03 -5.6018E+04  1.6271E+04  4.6358E+04  0.0000E+00  0.0000E+00  0.0000E+00
           8.0000E+03  0.0000E+00  0.0000E+00  0.0000E+00  9.0000E+01  9.0000E+01  9.0000E+01  0.0000E+00 -4.5856E-01
 ------------------------------------------------------------------------------------------------------------------------
   105600 -8.0011E+03  2.9472E+02 -1.1008E+04  2.6790E+03 -1.5576E+04  1.1530E+03  7.3628E+02  0.0000E+00  0.0000E+00
  52.800p -8.3610E+03  0.0000E+00  6.7610E+03 -5.7496E+04  1.6410E+04  4.7847E+04  0.0000E+00  0.0000E+00  0.0000E+00
   4.887s  8.0000E+03  0.0000E+00  0.0000E+00  0.0000E+00  9.0000E+01  9.0000E+01  9.0000E+01  0.0000E+00 -6.0086E-01

  rolling -8.0010E+03  2.9752E+02 -1.0957E+04  2.5572E+03 -1.5364E+04  1.1267E+03  7.2327E+02  0.0000E+00  0.0000E+00
 averages -8.2459E+03  0.0000E+00  6.7088E+03 -5.5949E+04  1.6283E+04  4.6375E+04  0.0000E+00  0.0000E+00  0.0000E+00
           8.0000E+03  0.0000E+00  0.0000E+00  0.0000E+00  9.0000E+01  9.0000E+01  9.0000E+01  0.0000E+00 -5.2705E-01
 ------------------------------------------------------------------------------------------------------------------------
   105700 -8.0018E+03  3.0480E+02 -1.1052E+04  2.7257E+03 -1.5681E+04  1.1086E+03  7.9528E+02  0.0000E+00  0.0000E+00
  52.850p -7.1802E+03  0.0000E+00  3.5914E+03 -5.8189E+04  1.6474E+04  4.5306E+04  0.0000E+00  0.0000E+00  0.0000E+00
   5.676s  8.0000E+03  0.0000E+00  0.0000E+00  0.0000E+00  9.0000E+01  9.0000E+01  9.0000E+01  0.0000E+00  1.7009E+00

  rolling -8.0011E+03  2.9783E+02 -1.0968E+04  2.5729E+03 -1.5395E+04  1.1267E+03  7.2702E+02  0.0000E+00  0.0000E+00
 averages -8.2140E+03  0.0000E+00  6.5957E+03 -5.6156E+04  1.6307E+04  4.6445E+04  0.0000E+00  0.0000E+00  0.0000E+00
           8.0000E+03  0.0000E+00  0.0000E+00  0.0000E+00  9.0000E+01  9.0000E+01  9.0000E+01  0.0000E+00 -4.4563E-01
 ------------------------------------------------------------------------------------------------------------------------
   105800 -8.0024E+03  3.0862E+02 -1.1036E+04  2.7013E+03 -1.5530E+04  1.0967E+03  6.9641E+02  0.0000E+00  0.0000E+00
  52.900p -8.2037E+03  0.0000E+00  6.9003E+03 -5.7881E+04  1.6477E+04  4.8304E+04  0.0000E+00  0.0000E+00  0.0000E+00
   6.465s  8.0000E+03  0.0000E+00  0.0000E+00  0.0000E+00  9.0000E+01  9.0000E+01  9.0000E+01  0.0000E+00 -5.0649E-01

  rolling -8.0011E+03  2.9739E+02 -1.0970E+04  2.5942E+03 -1.5420E+04  1.1266E+03  7.2896E+02  0.0000E+00  0.0000E+00
 averages -8.1641E+03  0.0000E+00  6.4171E+03 -5.6443E+04  1.6354E+04  4.6505E+04  0.0000E+00  0.0000E+00  0.0000E+00
           8.0000E+03  0.0000E+00  0.0000E+00  0.0000E+00  9.0000E+01  9.0000E+01  9.0000E+01  0.0000E+00 -3.2964E-01
 ------------------------------------------------------------------------------------------------------------------------
 ------------------------------------------------------------------------------------------------------------------------

     step     eng_tot    temp_tot     eng_cfg     eng_vdw     eng_cou     eng_bnd     eng_ang     eng_dih     eng_tet
 time          eng_pv    temp_rot     vir_cfg     vir_vdw     vir_cou     vir_bnd     vir_ang     vir_con     vir_tet
 cpu time      volume    temp_shl     eng_shl     vir_shl       alpha        beta       gamma     vir_pmf       press

 ------------------------------------------------------------------------------------------------------------------------
   105900 -8.0009E+03  3.0108E+02 -1.0913E+04  2.6353E+03 -1.5402E+04  1.1419E+03  7.1209E+02  0.0000E+00  0.0000E+00
  52.950p -8.0141E+03  0.0000E+00  6.3243E+03 -5.7032E+04  1.6668E+04  4.6688E+04  0.0000E+00  0.0000E+00  0.0000E+00
   7.254s  8.0000E+03  0.0000E+00  0.0000E+00  0.0000E+00  9.0000E+01  9.0000E+01  9.0000E+01  0.0000E+00 -2.1604E-01

  rolling -8.0011E+03  2.9728E+02 -1.0973E+04  2.6055E+03 -1.5434E+04  1.1269E+03  7.2807E+02  0.0000E+00  0.0000E+00
 averages -8.1585E+03  0.0000E+00  6.3857E+03 -5.6597E+04  1.6408E+04  4.6575E+04  0.0000E+00  0.0000E+00  0.0000E+00
           8.0000E+03  0.0000E+00  0.0000E+00  0.0000E+00  9.0000E+01  9.0000E+01  9.0000E+01  0.0000E+00 -3.0967E-01
 ------------------------------------------------------------------------------------------------------------------------
   106000 -8.0015E+03  3.0379E+02 -1.0913E+04  2.5572E+03 -1.5222E+04  1.0971E+03  6.5451E+02  0.0000E+00  0.0000E+00
  53.000p -7.7105E+03  0.0000E+00  5.5480E+03 -5.5918E+04  1.6449E+04  4.5017E+04  0.0000E+00  0.0000E+00  0.0000E+00
   8.049s  8.0000E+03  0.0000E+00  0.0000E+00  0.0000E+00  9.0000E+01  9.0000E+01  9.0000E+01  0.0000E+00  3.5102E-01

  rolling -8.0011E+03  2.9694E+02 -1.0970E+04  2.6035E+03 -1.5425E+04  1.1262E+03  7.2483E+02  0.0000E+00  0.0000E+00
 averages -8.1825E+03  0.0000E+00  6.4504E+03 -5.6563E+04  1.6451E+04  4.6563E+04  0.0000E+00  0.0000E+00  0.0000E+00
           8.0000E+03  0.0000E+00  0.0000E+00  0.0000E+00  9.0000E+01  9.0000E+01  9.0000E+01  0.0000E+00 -3.5852E-01
 ------------------------------------------------------------------------------------------------------------------------
   106100 -8.0014E+03  2.9041E+02 -1.0769E+04  2.5556E+03 -1.5114E+04  1.1073E+03  6.8263E+02  0.0000E+00  0.0000E+00
  53.050p -8.2152E+03  0.0000E+00  6.8276E+03 -5.5830E+04  1.5791E+04  4.6867E+04  0.0000E+00  0.0000E+00  0.0000E+00
   8.845s  8.0000E+03  0.0000E+00  0.0000E+00  0.0000E+00  9.0000E+01  9.0000E+01  9.0000E+01  0.0000E+00 -7.0507E-01

  rolling -8.0011E+03  2.9684E+02 -1.0964E+04  2.5802E+03 -1.5389E+04  1.1241E+03  7.2014E+02  0.0000E+00  0.0000E+00
 averages -8.2443E+03  0.0000E+00  6.6482E+03 -5.6240E+04  1.6442E+04  4.6447E+04  0.0000E+00  0.0000E+00  0.0000E+00
           8.0000E+03  0.0000E+00  0.0000E+00  0.0000E+00  9.0000E+01  9.0000E+01  9.0000E+01  0.0000E+00 -4.9493E-01
 ------------------------------------------------------------------------------------------------------------------------
   106200 -8.0008E+03  3.0186E+02 -1.0865E+04  2.5603E+03 -1.5210E+04  1.1375E+03  6.4704E+02  0.0000E+00  0.0000E+00
  53.100p -8.1972E+03  0.0000E+00  7.0554E+03 -5.5872E+04  1.6124E+04  4.6803E+04  0.0000E+00  0.0000E+00  0.0000E+00
   9.634s  8.0000E+03  0.0000E+00  0.0000E+00  0.0000E+00  9.0000E+01  9.0000E+01  9.0000E+01  0.0000E+00 -7.0456E-01

  rolling -8.0011E+03  2.9627E+02 -1.0948E+04  2.5809E+03 -1.5368E+04  1.1246E+03  7.1471E+02  0.0000E+00  0.0000E+00
 averages -8.2193E+03  0.0000E+00  6.5953E+03 -5.6232E+04  1.6411E+04  4.6416E+04  0.0000E+00  0.0000E+00  0.0000E+00
           8.0000E+03  0.0000E+00  0.0000E+00  0.0000E+00  9.0000E+01  9.0000E+01  9.0000E+01  0.0000E+00 -4.6649E-01
 ------------------------------------------------------------------------------------------------------------------------
   106300 -8.0010E+03  2.9762E+02 -1.0817E+04  2.4127E+03 -1.4991E+04  1.0624E+03  6.9862E+02  0.0000E+00  0.0000E+00
  53.150p -7.6300E+03  0.0000E+00  5.2861E+03 -5.3957E+04  1.6154E+04  4.3089E+04  0.0000E+00  0.0000E+00  0.0000E+00
  10.422s  8.0000E+03  0.0000E+00  0.0000E+00  0.0000E+00  9.0000E+01  9.0000E+01  9.0000E+01  0.0000E+00  4.4587E-01

  rolling -8.0010E+03  2.9689E+02 -1.0935E+04  2.5854E+03 -1.5355E+04  1.1260E+03  7.0920E+02  0.0000E+00  0.0000E+00
 averages -8.1528E+03  0.0000E+00  6.4653E+03 -5.6280E+04  1.6377E+04  4.6367E+04  0.0000E+00  0.0000E+00  0.0000E+00
           8.0000E+03  0.0000E+00  0.0000E+00  0.0000E+00  9.0000E+01  9.0000E+01  9.0000E+01  0.0000E+00 -3.6934E-01
 ------------------------------------------------------------------------------------------------------------------------
   106400 -8.0014E+03  2.9297E+02 -1.0769E+04  2.4067E+03 -1.5135E+04  1.1350E+03  8.2480E+02  0.0000E+00  0.0000E+00
  53.200p -8.9128E+03  0.0000E+00  9.0474E+03 -5.3954E+04  1.5939E+04  4.7063E+04  0.0000E+00  0.0000E+00  0.0000E+00
  11.211s  8.0000E+03  0.0000E+00  0.0000E+00  0.0000E+00  9.0000E+01  9.0000E+01  9.0000E+01  0.0000E+00 -2.1859E+00

  rolling -8.0010E+03  2.9725E+02 -1.0914E+04  2.5755E+03 -1.5326E+04  1.1274E+03  7.0980E+02  0.0000E+00  0.0000E+00
 averages -8.1261E+03  0.0000E+00  6.4656E+03 -5.6150E+04  1.6322E+04  4.6294E+04  0.0000E+00  0.0000E+00  0.0000E+00
           8.0000E+03  0.0000E+00  0.0000E+00  0.0000E+00  9.0000E+01  9.0000E+01  9.0000E+01  0.0000E+00 -3.6468E-01
 ------------------------------------------------------------------------------------------------------------------------
   106500 -8.0018E+03  3.0867E+02 -1.0897E+04  2.5682E+03 -1.5288E+04  1.0942E+03  7.2859E+02  0.0000E+00  0.0000E+00
  53.250p -7.4656E+03  0.0000E+00  5.1055E+03 -5.6021E+04  1.6163E+04  4.4964E+04  0.0000E+00  0.0000E+00  0.0000E+00
  12.000s  8.0000E+03  0.0000E+00  0.0000E+00  0.0000E+00  9.0000E+01  9.0000E+01  9.0000E+01  0.0000E+00  7.1966E-01

  rolling -8.0009E+03  2.9788E+02 -1.0892E+04  2.5800E+03 -1.5315E+04  1.1307E+03  7.1254E+02  0.0000E+00  0.0000E+00
 averages -8.0571E+03  0.0000E+00  6.3556E+03 -5.6209E+04  1.6290E+04  4.6275E+04  0.0000E+00  0.0000E+00  0.0000E+00
           8.0000E+03  0.0000E+00  0.0000E+00  0.0000E+00  9.0000E+01  9.0000E+01  9.0000E+01  0.0000E+00 -2.8101E-01
 ------------------------------------------------------------------------------------------------------------------------
   106600 -8.0004E+03  3.0822E+02 -1.0880E+04  2.5672E+03 -1.5297E+04  1.1665E+03  6.8386E+02  0.0000E+00  0.0000E+00
  53.300p -7.6968E+03  0.0000E+00  5.8274E+03 -5.6062E+04  1.6095E+04  4.5794E+04  0.0000E+00  0.0000E+00  0.0000E+00
  12.788s  8.0000E+03  0.0000E+00  0.0000E+00  0.0000E+00  9.0000E+01  9.0000E+01  9.0000E+01  0.0000E+00  2.2055E-01

  rolling -8.0008E+03  2.9930E+02 -1.0878E+04  2.5852E+03 -1.5311E+04  1.1338E+03  7.1434E+02  0.0000E+00  0.0000E+00
 averages -7.9829E+03  0.0000E+00  6.2461E+03 -5.6277E+04  1.6275E+04  4.6248E+04  0.0000E+00  0.0000E+00  0.0000E+00
           8.0000E+03  0.0000E+00  0.0000E+00  0.0000E+00  9.0000E+01  9.0000E+01  9.0000E+01  0.0000E+00 -1.8688E-01
 ------------------------------------------------------------------------------------------------------------------------
 ------------------------------------------------------------------------------------------------------------------------

     step     eng_tot    temp_tot     eng_cfg     eng_vdw     eng_cou     eng_bnd     eng_ang     eng_dih     eng_tet
 time          eng_pv    temp_rot     vir_cfg     vir_vdw     vir_cou     vir_bnd     vir_ang     vir_con     vir_tet
 cpu time      volume    temp_shl     eng_shl     vir_shl       alpha        beta       gamma     vir_pmf       press

 ------------------------------------------------------------------------------------------------------------------------
   106700 -7.9992E+03  2.9369E+02 -1.0754E+04  2.4613E+03 -1.5119E+04  1.1921E+03  7.1135E+02  0.0000E+00  0.0000E+00
  53.350p -8.9811E+03  0.0000E+00  9.3313E+03 -5.4740E+04  1.6088E+04  4.7983E+04  0.0000E+00  0.0000E+00  0.0000E+00
  13.577s  8.0000E+03  0.0000E+00  0.0000E+00  0.0000E+00  9.0000E+01  9.0000E+01  9.0000E+01  0.0000E+00 -2.3700E+00

  rolling -8.0007E+03  2.9974E+02 -1.0860E+04  2.5596E+03 -1.5267E+04  1.1340E+03  7.1367E+02  0.0000E+00  0.0000E+00
 averages -8.0229E+03  0.0000E+00  6.4430E+03 -5.5945E+04  1.6246E+04  4.6142E+04  0.0000E+00  0.0000E+00  0.0000E+00
           8.0000E+03  0.0000E+00  0.0000E+00  0.0000E+00  9.0000E+01  9.0000E+01  9.0000E+01  0.0000E+00 -3.1529E-01
 ------------------------------------------------------------------------------------------------------------------------
   106800 -7.9998E+03  3.0386E+02 -1.0891E+04  2.4123E+03 -1.5131E+04  1.1026E+03  7.2505E+02  0.0000E+00  0.0000E+00
  53.400p -7.6548E+03  0.0000E+00  5.4502E+03 -5.4188E+04  1.6392E+04  4.3246E+04  0.0000E+00  0.0000E+00  0.0000E+00
  14.367s  8.0000E+03  0.0000E+00  0.0000E+00  0.0000E+00  9.0000E+01  9.0000E+01  9.0000E+01  0.0000E+00  4.1879E-01

  rolling -8.0006E+03  2.9998E+02 -1.0848E+04  2.5303E+03 -1.5227E+04  1.1329E+03  7.1551E+02  0.0000E+00  0.0000E+00
 averages -8.0796E+03  0.0000E+00  6.6600E+03 -5.5568E+04  1.6217E+04  4.6012E+04  0.0000E+00  0.0000E+00  0.0000E+00
           8.0000E+03  0.0000E+00  0.0000E+00  0.0000E+00  9.0000E+01  9.0000E+01  9.0000E+01  0.0000E+00 -4.6015E-01
 ------------------------------------------------------------------------------------------------------------------------
   106900 -8.0014E+03  2.9367E+02 -1.0846E+04  2.6018E+03 -1.5325E+04  1.0969E+03  7.7956E+02  0.0000E+00  0.0000E+00
  53.450p -8.0440E+03  0.0000E+00  6.2429E+03 -5.6641E+04  1.6337E+04  4.6546E+04  0.0000E+00  0.0000E+00  0.0000E+00
  15.162s  8.0000E+03  0.0000E+00  0.0000E+00  0.0000E+00  9.0000E+01  9.0000E+01  9.0000E+01  0.0000E+00 -2.6136E-01

  rolling -8.0006E+03  2.9986E+02 -1.0842E+04  2.5070E+03 -1.5198E+04  1.1310E+03  7.1813E+02  0.0000E+00  0.0000E+00
 averages -8.1249E+03  0.0000E+00  6.8067E+03 -5.5271E+04  1.6181E+04  4.5897E+04  0.0000E+00  0.0000E+00  0.0000E+00
           8.0000E+03  0.0000E+00  0.0000E+00  0.0000E+00  9.0000E+01  9.0000E+01  9.0000E+01  0.0000E+00 -5.6205E-01
 ------------------------------------------------------------------------------------------------------------------------
   107000 -8.0011E+03  2.9438E+02 -1.0907E+04  2.4855E+03 -1.5314E+04  1.1734E+03  7.4837E+02  0.0000E+00  0.0000E+00
  53.500p -8.9533E+03  0.0000E+00  8.8256E+03 -5.5144E+04  1.6326E+04  4.7644E+04  0.0000E+00  0.0000E+00  0.0000E+00
  15.951s  8.0000E+03  0.0000E+00  0.0000E+00  0.0000E+00  9.0000E+01  9.0000E+01  9.0000E+01  0.0000E+00 -2.0153E+00

  rolling -8.0005E+03  2.9929E+02 -1.0842E+04  2.4961E+03 -1.5190E+04  1.1298E+03  7.2265E+02  0.0000E+00  0.0000E+00
 averages -8.1451E+03  0.0000E+00  6.8408E+03 -5.5141E+04  1.6136E+04  4.5846E+04  0.0000E+00  0.0000E+00  0.0000E+00
           8.0000E+03  0.0000E+00  0.0000E+00  0.0000E+00  9.0000E+01  9.0000E+01  9.0000E+01  0.0000E+00 -5.9309E-01
 ------------------------------------------------------------------------------------------------------------------------
   107100 -7.9997E+03  2.8284E+02 -1.0818E+04  2.4934E+03 -1.5162E+04  1.1156E+03  7.3467E+02  0.0000E+00  0.0000E+00
  53.550p -7.8355E+03  0.0000E+00  5.1632E+03 -5.5190E+04  1.6168E+04  4.4186E+04  0.0000E+00  0.0000E+00  0.0000E+00
  16.879s  8.0000E+03  0.0000E+00  0.0000E+00  0.0000E+00  9.0000E+01  9.0000E+01  9.0000E+01  0.0000E+00  3.2840E-01

  rolling -8.0006E+03  2.9820E+02 -1.0842E+04  2.4912E+03 -1.5186E+04  1.1277E+03  7.2536E+02  0.0000E+00  0.0000E+00
 averages -8.1593E+03  0.0000E+00  6.8281E+03 -5.5096E+04  1.6123E+04  4.5802E+04  0.0000E+00  0.0000E+00  0.0000E+00
           8.0000E+03  0.0000E+00  0.0000E+00  0.0000E+00  9.0000E+01  9.0000E+01  9.0000E+01  0.0000E+00 -5.9930E-01
 ------------------------------------------------------------------------------------------------------------------------
   107200 -8.0003E+03  2.9516E+02 -1.0930E+04  2.4503E+03 -1.5251E+04  1.1405E+03  7.2973E+02  0.0000E+00  0.0000E+00
  53.600p -8.5177E+03  0.0000E+00  7.4876E+03 -5.4544E+04  1.6485E+04  4.5547E+04  0.0000E+00  0.0000E+00  0.0000E+00
  17.727s  8.0000E+03  0.0000E+00  0.0000E+00  0.0000E+00  9.0000E+01  9.0000E+01  9.0000E+01  0.0000E+00 -1.0910E+00

  rolling -8.0006E+03  2.9799E+02 -1.0853E+04  2.4820E+03 -1.5189E+04  1.1258E+03  7.2795E+02  0.0000E+00  0.0000E+00
 averages -8.2054E+03  0.0000E+00  6.9229E+03 -5.4990E+04  1.6151E+04  4.5761E+04  0.0000E+00  0.0000E+00  0.0000E+00
           8.0000E+03  0.0000E+00  0.0000E+00  0.0000E+00  9.0000E+01  9.0000E+01  9.0000E+01  0.0000E+00 -6.6688E-01
 ------------------------------------------------------------------------------------------------------------------------
   107300 -8.0014E+03  2.8377E+02 -1.0793E+04  2.4425E+03 -1.5110E+04  1.1578E+03  7.1658E+02  0.0000E+00  0.0000E+00
  53.650p -9.5225E+03  0.0000E+00  1.0346E+04 -5.4393E+04  1.6467E+04  4.8272E+04  0.0000E+00  0.0000E+00  0.0000E+00
  18.543s  8.0000E+03  0.0000E+00  0.0000E+00  0.0000E+00  9.0000E+01  9.0000E+01  9.0000E+01  0.0000E+00 -3.1977E+00

  rolling -8.0007E+03  2.9722E+02 -1.0858E+04  2.4824E+03 -1.5198E+04  1.1255E+03  7.3193E+02  0.0000E+00  0.0000E+00
 averages -8.2416E+03  0.0000E+00  6.9784E+03 -5.5002E+04  1.6185E+04  4.5795E+04  0.0000E+00  0.0000E+00  0.0000E+00
           8.0000E+03  0.0000E+00  0.0000E+00  0.0000E+00  9.0000E+01  9.0000E+01  9.0000E+01  0.0000E+00 -7.1524E-01
 ------------------------------------------------------------------------------------------------------------------------
   107400 -8.0011E+03  2.9457E+02 -1.0849E+04  2.4063E+03 -1.4986E+04  1.0518E+03  6.7846E+02  0.0000E+00  0.0000E+00
  53.700p -7.5629E+03  0.0000E+00  4.8362E+03 -5.3925E+04  1.6007E+04  4.2754E+04  0.0000E+00  0.0000E+00  0.0000E+00
  19.331s  8.0000E+03  0.0000E+00  0.0000E+00  0.0000E+00  9.0000E+01  9.0000E+01  9.0000E+01  0.0000E+00  7.1147E-01

  rolling -8.0007E+03  2.9702E+02 -1.0865E+04  2.4856E+03 -1.5208E+04  1.1253E+03  7.3216E+02  0.0000E+00  0.0000E+00
 averages -8.2540E+03  0.0000E+00  6.9845E+03 -5.5044E+04  1.6210E+04  4.5819E+04  0.0000E+00  0.0000E+00  0.0000E+00
           8.0000E+03  0.0000E+00  0.0000E+00  0.0000E+00  9.0000E+01  9.0000E+01  9.0000E+01  0.0000E+00 -7.2211E-01
 ------------------------------------------------------------------------------------------------------------------------
 ------------------------------------------------------------------------------------------------------------------------

     step     eng_tot    temp_tot     eng_cfg     eng_vdw     eng_cou     eng_bnd     eng_ang     eng_dih     eng_tet
 time          eng_pv    temp_rot     vir_cfg     vir_vdw     vir_cou     vir_bnd     vir_ang     vir_con     vir_tet
 cpu time      volume    temp_shl     eng_shl     vir_shl       alpha        beta       gamma     vir_pmf       press

 ------------------------------------------------------------------------------------------------------------------------
   107500 -8.0013E+03  3.0201E+02 -1.0865E+04  2.5242E+03 -1.5067E+04  1.0669E+03  6.1053E+02  0.0000E+00  0.0000E+00
  53.750p -7.4165E+03  0.0000E+00  4.7210E+03 -5.5482E+04  1.5803E+04  4.4400E+04  0.0000E+00  0.0000E+00  0.0000E+00
  20.123s  8.0000E+03  0.0000E+00  0.0000E+00  0.0000E+00  9.0000E+01  9.0000E+01  9.0000E+01  0.0000E+00  8.9152E-01

  rolling -8.0007E+03  2.9769E+02 -1.0876E+04  2.4774E+03 -1.5207E+04  1.1243E+03  7.2851E+02  0.0000E+00  0.0000E+00
 averages -8.2888E+03  0.0000E+00  7.0882E+03 -5.4937E+04  1.6215E+04  4.5811E+04  0.0000E+00  0.0000E+00  0.0000E+00
           8.0000E+03  0.0000E+00  0.0000E+00  0.0000E+00  9.0000E+01  9.0000E+01  9.0000E+01  0.0000E+00 -7.8388E-01
 ------------------------------------------------------------------------------------------------------------------------
   107600 -8.0011E+03  3.1546E+02 -1.0971E+04  2.6742E+03 -1.5572E+04  1.2104E+03  7.1621E+02  0.0000E+00  0.0000E+00
  53.800p -8.9417E+03  0.0000E+00  9.6481E+03 -5.7533E+04  1.6536E+04  5.0645E+04  0.0000E+00  0.0000E+00  0.0000E+00
  20.917s  8.0000E+03  0.0000E+00  0.0000E+00  0.0000E+00  9.0000E+01  9.0000E+01  9.0000E+01  0.0000E+00 -2.2897E+00

  rolling -8.0007E+03  2.9759E+02 -1.0878E+04  2.4813E+03 -1.5214E+04  1.1249E+03  7.3005E+02  0.0000E+00  0.0000E+00
 averages -8.2952E+03  0.0000E+00  7.0973E+03 -5.4995E+04  1.6238E+04  4.5855E+04  0.0000E+00  0.0000E+00  0.0000E+00
           8.0000E+03  0.0000E+00  0.0000E+00  0.0000E+00  9.0000E+01  9.0000E+01  9.0000E+01  0.0000E+00 -7.9136E-01
 ------------------------------------------------------------------------------------------------------------------------
   107700 -8.0005E+03  3.0914E+02 -1.0928E+04  2.8549E+03 -1.5634E+04  1.1152E+03  7.3625E+02  0.0000E+00  0.0000E+00
  53.850p -6.4330E+03  0.0000E+00  1.9376E+03 -5.9887E+04  1.6421E+04  4.5403E+04  0.0000E+00  0.0000E+00  0.0000E+00
  21.705s  8.0000E+03  0.0000E+00  0.0000E+00  0.0000E+00  9.0000E+01  9.0000E+01  9.0000E+01  0.0000E+00  2.8892E+00

  rolling -8.0007E+03  2.9831E+02 -1.0887E+04  2.5113E+03 -1.5255E+04  1.1274E+03  7.2966E+02  0.0000E+00  0.0000E+00
 averages -8.2132E+03  0.0000E+00  6.8609E+03 -5.5391E+04  1.6268E+04  4.5983E+04  0.0000E+00  0.0000E+00  0.0000E+00
           8.0000E+03  0.0000E+00  0.0000E+00  0.0000E+00  9.0000E+01  9.0000E+01  9.0000E+01  0.0000E+00 -6.2012E-01
 ------------------------------------------------------------------------------------------------------------------------
   107800 -8.0000E+03  2.8808E+02 -1.0785E+04  2.6841E+03 -1.5221E+04  1.0677E+03  6.8406E+02  0.0000E+00  0.0000E+00
  53.900p -6.5117E+03  0.0000E+00  1.5510E+03 -5.7648E+04  1.5872E+04  4.3327E+04  0.0000E+00  0.0000E+00  0.0000E+00
  22.500s  8.0000E+03  0.0000E+00  0.0000E+00  0.0000E+00  9.0000E+01  9.0000E+01  9.0000E+01  0.0000E+00  2.8663E+00

  rolling -8.0007E+03  2.9861E+02 -1.0893E+04  2.5394E+03 -1.5287E+04  1.1295E+03  7.2520E+02  0.0000E+00  0.0000E+00
 averages -8.1293E+03  0.0000E+00  6.6052E+03 -5.5755E+04  1.6286E+04  4.6075E+04  0.0000E+00  0.0000E+00  0.0000E+00
           8.0000E+03  0.0000E+00  0.0000E+00  0.0000E+00  9.0000E+01  9.0000E+01  9.0000E+01  0.0000E+00 -4.4144E-01
 ------------------------------------------------------------------------------------------------------------------------
   107900 -8.0012E+03  2.9278E+02 -1.0899E+04  2.7142E+03 -1.5451E+04  1.2106E+03  6.2708E+02  0.0000E+00  0.0000E+00
  53.950p -8.9732E+03  0.0000E+00  8.8287E+03 -5.8002E+04  1.5911E+04  5.0920E+04  0.0000E+00  0.0000E+00  0.0000E+00
  23.294s  8.0000E+03  0.0000E+00  0.0000E+00  0.0000E+00  9.0000E+01  9.0000E+01  9.0000E+01  0.0000E+00 -2.0392E+00

  rolling -8.0006E+03  2.9795E+02 -1.0892E+04  2.5569E+03 -1.5296E+04  1.1303E+03  7.1680E+02  0.0000E+00  0.0000E+00
 averages -8.0765E+03  0.0000E+00  6.4161E+03 -5.5975E+04  1.6249E+04  4.6142E+04  0.0000E+00  0.0000E+00  0.0000E+00
           8.0000E+03  0.0000E+00  0.0000E+00  0.0000E+00  9.0000E+01  9.0000E+01  9.0000E+01  0.0000E+00 -3.2134E-01
 ------------------------------------------------------------------------------------------------------------------------
   108000 -8.0018E+03  2.8599E+02 -1.0873E+04  2.5191E+03 -1.5118E+04  1.0390E+03  6.8626E+02  0.0000E+00  0.0000E+00
  54.000p -7.6782E+03  0.0000E+00  4.6819E+03 -5.5431E+04  1.5721E+04  4.4392E+04  0.0000E+00  0.0000E+00  0.0000E+00
  24.077s  8.0000E+03  0.0000E+00  0.0000E+00  0.0000E+00  9.0000E+01  9.0000E+01  9.0000E+01  0.0000E+00  6.9987E-01

  rolling -8.0007E+03  2.9753E+02 -1.0894E+04  2.5594E+03 -1.5292E+04  1.1295E+03  7.0908E+02  0.0000E+00  0.0000E+00
 averages -8.0613E+03  0.0000E+00  6.3448E+03 -5.5995E+04  1.6197E+04  4.6143E+04  0.0000E+00  0.0000E+00  0.0000E+00
           8.0000E+03  0.0000E+00  0.0000E+00  0.0000E+00  9.0000E+01  9.0000E+01  9.0000E+01  0.0000E+00 -2.7839E-01
 ------------------------------------------------------------------------------------------------------------------------
   108100 -8.0021E+03  3.0344E+02 -1.1049E+04  2.4251E+03 -1.5105E+04  1.0009E+03  6.3061E+02  0.0000E+00  0.0000E+00
  54.050p -7.2205E+03  0.0000E+00  3.6528E+03 -5.4187E+04  1.5965E+04  4.1874E+04  0.0000E+00  0.0000E+00  0.0000E+00
  25.014s  8.0000E+03  0.0000E+00  0.0000E+00  0.0000E+00  9.0000E+01  9.0000E+01  9.0000E+01  0.0000E+00  1.6404E+00

  rolling -8.0007E+03  2.9772E+02 -1.0899E+04  2.5584E+03 -1.5290E+04  1.1285E+03  7.0406E+02  0.0000E+00  0.0000E+00
 averages -8.0630E+03  0.0000E+00  6.3429E+03 -5.5967E+04  1.6180E+04  4.6130E+04  0.0000E+00  0.0000E+00  0.0000E+00
           8.0000E+03  0.0000E+00  0.0000E+00  0.0000E+00  9.0000E+01  9.0000E+01  9.0000E+01  0.0000E+00 -2.7447E-01
 ------------------------------------------------------------------------------------------------------------------------
   108200 -8.0021E+03  2.9346E+02 -1.0917E+04  2.5526E+03 -1.5419E+04  1.1665E+03  7.8222E+02  0.0000E+00  0.0000E+00
  54.100p -9.7399E+03  0.0000E+00  1.1108E+04 -5.5839E+04  1.5991E+04  5.0956E+04  0.0000E+00  0.0000E+00  0.0000E+00
  25.863s  8.0000E+03  0.0000E+00  0.0000E+00  0.0000E+00  9.0000E+01  9.0000E+01  9.0000E+01  0.0000E+00 -3.5861E+00

  rolling -8.0007E+03  2.9731E+02 -1.0897E+04  2.5642E+03 -1.5288E+04  1.1288E+03  6.9862E+02  0.0000E+00  0.0000E+00
 averages -8.0444E+03  0.0000E+00  6.2746E+03 -5.6034E+04  1.6151E+04  4.6158E+04  0.0000E+00  0.0000E+00  0.0000E+00
           8.0000E+03  0.0000E+00  0.0000E+00  0.0000E+00  9.0000E+01  9.0000E+01  9.0000E+01  0.0000E+00 -2.3336E-01
 ------------------------------------------------------------------------------------------------------------------------
 ------------------------------------------------------------------------------------------------------------------------

     step     eng_tot    temp_tot     eng_cfg     eng_vdw     eng_cou     eng_bnd     eng_ang     eng_dih     eng_tet
 time          eng_pv    temp_rot     vir_cfg     vir_vdw     vir_cou     vir_bnd     vir_ang     vir_con     vir_tet
 cpu time      volume    temp_shl     eng_shl     vir_shl       alpha        beta       gamma     vir_pmf       press

 ------------------------------------------------------------------------------------------------------------------------
   108300 -8.0020E+03  2.9389E+02 -1.0850E+04  2.4334E+03 -1.5119E+04  1.0342E+03  8.0130E+02  0.0000E+00  0.0000E+00
  54.150p -7.5360E+03  0.0000E+00  4.7187E+03 -5.4285E+04  1.5869E+04  4.3134E+04  0.0000E+00  0.0000E+00  0.0000E+00
  26.673s  8.0000E+03  0.0000E+00  0.0000E+00  0.0000E+00  9.0000E+01  9.0000E+01  9.0000E+01  0.0000E+00  7.8239E-01

  rolling -8.0007E+03  2.9683E+02 -1.0890E+04  2.5773E+03 -1.5296E+04  1.1291E+03  6.9938E+02  0.0000E+00  0.0000E+00
 averages -7.9778E+03  0.0000E+00  6.0707E+03 -5.6201E+04  1.6094E+04  4.6178E+04  0.0000E+00  0.0000E+00  0.0000E+00
           8.0000E+03  0.0000E+00  0.0000E+00  0.0000E+00  9.0000E+01  9.0000E+01  9.0000E+01  0.0000E+00 -1.0073E-01
 ------------------------------------------------------------------------------------------------------------------------
   108400 -8.0003E+03  3.0684E+02 -1.0890E+04  2.3666E+03 -1.5133E+04  1.0842E+03  7.9235E+02  0.0000E+00  0.0000E+00
  54.200p -7.8972E+03  0.0000E+00  6.3294E+03 -5.3311E+04  1.6121E+04  4.3519E+04  0.0000E+00  0.0000E+00  0.0000E+00
  27.461s  8.0000E+03  0.0000E+00  0.0000E+00  0.0000E+00  9.0000E+01  9.0000E+01  9.0000E+01  0.0000E+00 -1.4099E-01

  rolling -8.0007E+03  2.9777E+02 -1.0893E+04  2.5734E+03 -1.5295E+04  1.1285E+03  6.9972E+02  0.0000E+00  0.0000E+00
 averages -7.9564E+03  0.0000E+00  6.0454E+03 -5.6148E+04  1.6056E+04  4.6137E+04  0.0000E+00  0.0000E+00  0.0000E+00
           8.0000E+03  0.0000E+00  0.0000E+00  0.0000E+00  9.0000E+01  9.0000E+01  9.0000E+01  0.0000E+00 -7.0650E-02
 ------------------------------------------------------------------------------------------------------------------------
   108500 -7.9993E+03  2.9522E+02 -1.0712E+04  2.3621E+03 -1.5055E+04  1.2364E+03  7.4392E+02  0.0000E+00  0.0000E+00
  54.250p -9.5463E+03  0.0000E+00  1.1229E+04 -5.3187E+04  1.6126E+04  4.8290E+04  0.0000E+00  0.0000E+00  0.0000E+00
  28.249s  8.0000E+03  0.0000E+00  0.0000E+00  0.0000E+00  9.0000E+01  9.0000E+01  9.0000E+01  0.0000E+00 -3.6453E+00

  rolling -8.0007E+03  2.9780E+02 -1.0885E+04  2.5720E+03 -1.5288E+04  1.1293E+03  7.0149E+02  0.0000E+00  0.0000E+00
 averages -7.9593E+03  0.0000E+00  6.0794E+03 -5.6115E+04  1.6052E+04  4.6142E+04  0.0000E+00  0.0000E+00  0.0000E+00
           8.0000E+03  0.0000E+00  0.0000E+00  0.0000E+00  9.0000E+01  9.0000E+01  9.0000E+01  0.0000E+00 -9.3397E-02
 ------------------------------------------------------------------------------------------------------------------------
   108600 -7.9991E+03  2.9916E+02 -1.0707E+04  2.3644E+03 -1.4941E+04  1.1574E+03  7.1250E+02  0.0000E+00  0.0000E+00
  54.300p -8.3850E+03  0.0000E+00  7.9590E+03 -5.3240E+04  1.6295E+04  4.4904E+04  0.0000E+00  0.0000E+00  0.0000E+00
  29.031s  8.0000E+03  0.0000E+00  0.0000E+00  0.0000E+00  9.0000E+01  9.0000E+01  9.0000E+01  0.0000E+00 -1.3584E+00

  rolling -8.0006E+03  2.9753E+02 -1.0873E+04  2.5372E+03 -1.5238E+04  1.1272E+03  7.0061E+02  0.0000E+00  0.0000E+00
 averages -8.0539E+03  0.0000E+00  6.3850E+03 -5.5640E+04  1.6034E+04  4.5991E+04  0.0000E+00  0.0000E+00  0.0000E+00
           8.0000E+03  0.0000E+00  0.0000E+00  0.0000E+00  9.0000E+01  9.0000E+01  9.0000E+01  0.0000E+00 -3.0577E-01
 ------------------------------------------------------------------------------------------------------------------------
   108700 -7.9999E+03  3.1476E+02 -1.0847E+04  2.5949E+03 -1.5155E+04  1.1056E+03  6.0791E+02  0.0000E+00  0.0000E+00
  54.350p -7.0438E+03  0.0000E+00  4.2930E+03 -5.6354E+04  1.6063E+04  4.4584E+04  0.0000E+00  0.0000E+00  0.0000E+00
  29.819s  8.0000E+03  0.0000E+00  0.0000E+00  0.0000E+00  9.0000E+01  9.0000E+01  9.0000E+01  0.0000E+00  1.3574E+00

  rolling -8.0006E+03  2.9732E+02 -1.0859E+04  2.5070E+03 -1.5192E+04  1.1251E+03  7.0045E+02  0.0000E+00  0.0000E+00
 averages -8.1239E+03  0.0000E+00  6.6261E+03 -5.5224E+04  1.6016E+04  4.5834E+04  0.0000E+00  0.0000E+00  0.0000E+00
           8.0000E+03  0.0000E+00  0.0000E+00  0.0000E+00  9.0000E+01  9.0000E+01  9.0000E+01  0.0000E+00 -4.7332E-01
 ------------------------------------------------------------------------------------------------------------------------
   108800 -8.0001E+03  3.1556E+02 -1.0887E+04  2.7610E+03 -1.5497E+04  1.1636E+03  6.8502E+02  0.0000E+00  0.0000E+00
  54.400p -7.6221E+03  0.0000E+00  5.9479E+03 -5.8651E+04  1.6664E+04  4.7934E+04  0.0000E+00  0.0000E+00  0.0000E+00
  30.607s  8.0000E+03  0.0000E+00  0.0000E+00  0.0000E+00  9.0000E+01  9.0000E+01  9.0000E+01  0.0000E+00  2.3839E-01

  rolling -8.0005E+03  2.9770E+02 -1.0847E+04  2.5003E+03 -1.5178E+04  1.1263E+03  7.0439E+02  0.0000E+00  0.0000E+00
 averages -8.1340E+03  0.0000E+00  6.7111E+03 -5.5131E+04  1.6020E+04  4.5822E+04  0.0000E+00  0.0000E+00  0.0000E+00
           8.0000E+03  0.0000E+00  0.0000E+00  0.0000E+00  9.0000E+01  9.0000E+01  9.0000E+01  0.0000E+00 -5.2617E-01
 ------------------------------------------------------------------------------------------------------------------------
   108900 -7.9997E+03  2.9728E+02 -1.0801E+04  2.7321E+03 -1.5335E+04  1.1539E+03  6.4818E+02  0.0000E+00  0.0000E+00
  54.450p -7.7298E+03  0.0000E+00  5.6180E+03 -5.8180E+04  1.6405E+04  4.7392E+04  0.0000E+00  0.0000E+00  0.0000E+00
  31.395s  8.0000E+03  0.0000E+00  0.0000E+00  0.0000E+00  9.0000E+01  9.0000E+01  9.0000E+01  0.0000E+00  2.1458E-01

  rolling -8.0005E+03  2.9917E+02 -1.0846E+04  2.5098E+03 -1.5195E+04  1.1295E+03  7.0945E+02  0.0000E+00  0.0000E+00
 averages -8.1092E+03  0.0000E+00  6.7151E+03 -5.5251E+04  1.6091E+04  4.5875E+04  0.0000E+00  0.0000E+00  0.0000E+00
           8.0000E+03  0.0000E+00  0.0000E+00  0.0000E+00  9.0000E+01  9.0000E+01  9.0000E+01  0.0000E+00 -5.0889E-01
 ------------------------------------------------------------------------------------------------------------------------
   109000 -7.9996E+03  2.9218E+02 -1.0876E+04  2.6608E+03 -1.5321E+04  1.1023E+03  6.8186E+02  0.0000E+00  0.0000E+00
  54.500p -7.2501E+03  0.0000E+00  3.6987E+03 -5.7223E+04  1.6417E+04  4.4505E+04  0.0000E+00  0.0000E+00  0.0000E+00
  32.184s  8.0000E+03  0.0000E+00  0.0000E+00  0.0000E+00  9.0000E+01  9.0000E+01  9.0000E+01  0.0000E+00  1.4556E+00

  rolling -8.0004E+03  3.0021E+02 -1.0846E+04  2.5206E+03 -1.5208E+04  1.1320E+03  7.0979E+02  0.0000E+00  0.0000E+00
 averages -8.0941E+03  0.0000E+00  6.7214E+03 -5.5383E+04  1.6177E+04  4.5928E+04  0.0000E+00  0.0000E+00  0.0000E+00
           8.0000E+03  0.0000E+00  0.0000E+00  0.0000E+00  9.0000E+01  9.0000E+01  9.0000E+01  0.0000E+00 -4.9901E-01
 ------------------------------------------------------------------------------------------------------------------------
 ------------------------------------------------------------------------------------------------------------------------

     step     eng_tot    temp_tot     eng_cfg     eng_vdw     eng_cou     eng_bnd     eng_ang     eng_dih     eng_tet
 time          eng_pv    temp_rot     vir_cfg     vir_vdw     vir_cou     vir_bnd     vir_ang     vir_con     vir_tet
 cpu time      volume    temp_shl     eng_shl     vir_shl       alpha        beta       gamma     vir_pmf       press

 ------------------------------------------------------------------------------------------------------------------------
   109100 -8.0021E+03  2.9530E+02 -1.1018E+04  2.5033E+03 -1.5361E+04  1.0919E+03  7.4689E+02  0.0000E+00  0.0000E+00
  54.550p -8.7137E+03  0.0000E+00  7.8172E+03 -5.5167E+04  1.6431E+04  4.6554E+04  0.0000E+00  0.0000E+00  0.0000E+00
  33.114s  8.0000E+03  0.0000E+00  0.0000E+00  0.0000E+00  9.0000E+01  9.0000E+01  9.0000E+01  0.0000E+00 -1.3141E+00

  rolling -8.0004E+03  3.0011E+02 -1.0845E+04  2.5402E+03 -1.5232E+04  1.1345E+03  7.1292E+02  0.0000E+00  0.0000E+00
 averages -8.0611E+03  0.0000E+00  6.6211E+03 -5.5635E+04  1.6233E+04  4.6024E+04  0.0000E+00  0.0000E+00  0.0000E+00
           8.0000E+03  0.0000E+00  0.0000E+00  0.0000E+00  9.0000E+01  9.0000E+01  9.0000E+01  0.0000E+00 -4.3186E-01
 ------------------------------------------------------------------------------------------------------------------------
   109200 -8.0022E+03  2.8904E+02 -1.1023E+04  2.5201E+03 -1.5354E+04  1.0956E+03  7.1559E+02  0.0000E+00  0.0000E+00
  54.600p -9.1154E+03  0.0000E+00  8.6965E+03 -5.5482E+04  1.6482E+04  4.7697E+04  0.0000E+00  0.0000E+00  0.0000E+00
  33.967s  8.0000E+03  0.0000E+00  0.0000E+00  0.0000E+00  9.0000E+01  9.0000E+01  9.0000E+01  0.0000E+00 -1.9999E+00

  rolling -8.0004E+03  2.9999E+02 -1.0853E+04  2.5361E+03 -1.5238E+04  1.1334E+03  7.1460E+02  0.0000E+00  0.0000E+00
 averages -8.1067E+03  0.0000E+00  6.7254E+03 -5.5583E+04  1.6267E+04  4.6042E+04  0.0000E+00  0.0000E+00  0.0000E+00
           8.0000E+03  0.0000E+00  0.0000E+00  0.0000E+00  9.0000E+01  9.0000E+01  9.0000E+01  0.0000E+00 -5.0475E-01
 ------------------------------------------------------------------------------------------------------------------------
   109300 -8.0013E+03  2.8188E+02 -1.0965E+04  2.6893E+03 -1.5442E+04  1.1011E+03  6.8725E+02  0.0000E+00  0.0000E+00
  54.650p -7.4456E+03  0.0000E+00  3.5048E+03 -5.7783E+04  1.6748E+04  4.4540E+04  0.0000E+00  0.0000E+00  0.0000E+00
  34.773s  8.0000E+03  0.0000E+00  0.0000E+00  0.0000E+00  9.0000E+01  9.0000E+01  9.0000E+01  0.0000E+00  1.4477E+00

  rolling -8.0004E+03  2.9953E+02 -1.0868E+04  2.5432E+03 -1.5256E+04  1.1320E+03  7.1234E+02  0.0000E+00  0.0000E+00
 averages -8.1344E+03  0.0000E+00  6.7406E+03 -5.5689E+04  1.6349E+04  4.6080E+04  0.0000E+00  0.0000E+00  0.0000E+00
           8.0000E+03  0.0000E+00  0.0000E+00  0.0000E+00  9.0000E+01  9.0000E+01  9.0000E+01  0.0000E+00 -5.2136E-01
 ------------------------------------------------------------------------------------------------------------------------
   109400 -8.0019E+03  2.9789E+02 -1.1085E+04  2.5827E+03 -1.5396E+04  1.1251E+03  6.0387E+02  0.0000E+00  0.0000E+00
  54.700p -8.9939E+03  0.0000E+00  8.5885E+03 -5.6347E+04  1.6568E+04  4.8368E+04  0.0000E+00  0.0000E+00  0.0000E+00
  35.567s  8.0000E+03  0.0000E+00  0.0000E+00  0.0000E+00  9.0000E+01  9.0000E+01  9.0000E+01  0.0000E+00 -1.8056E+00

  rolling -8.0005E+03  2.9841E+02 -1.0884E+04  2.5729E+03 -1.5299E+04  1.1320E+03  7.1020E+02  0.0000E+00  0.0000E+00
 averages -8.1133E+03  0.0000E+00  6.5755E+03 -5.6092E+04  1.6424E+04  4.6243E+04  0.0000E+00  0.0000E+00  0.0000E+00
           8.0000E+03  0.0000E+00  0.0000E+00  0.0000E+00  9.0000E+01  9.0000E+01  9.0000E+01  0.0000E+00 -4.2397E-01
 ------------------------------------------------------------------------------------------------------------------------
   109500 -8.0026E+03  2.9605E+02 -1.1005E+04  2.6835E+03 -1.5430E+04  1.0774E+03  6.6370E+02  0.0000E+00  0.0000E+00
  54.750p -7.7391E+03  0.0000E+00  4.9698E+03 -5.7694E+04  1.6401E+04  4.6263E+04  0.0000E+00  0.0000E+00  0.0000E+00
  36.355s  8.0000E+03  0.0000E+00  0.0000E+00  0.0000E+00  9.0000E+01  9.0000E+01  9.0000E+01  0.0000E+00  6.4038E-01

  rolling -8.0006E+03  2.9777E+02 -1.0906E+04  2.5953E+03 -1.5341E+04  1.1306E+03  7.0879E+02  0.0000E+00  0.0000E+00
 averages -8.0906E+03  0.0000E+00  6.4089E+03 -5.6412E+04  1.6478E+04  4.6342E+04  0.0000E+00  0.0000E+00  0.0000E+00
           8.0000E+03  0.0000E+00  0.0000E+00  0.0000E+00  9.0000E+01  9.0000E+01  9.0000E+01  0.0000E+00 -3.1891E-01
 ------------------------------------------------------------------------------------------------------------------------
   109600 -8.0012E+03  2.9049E+02 -1.0871E+04  2.6435E+03 -1.5305E+04  1.0922E+03  6.9822E+02  0.0000E+00  0.0000E+00
  54.800p -7.6526E+03  0.0000E+00  4.8360E+03 -5.7161E+04  1.6374E+04  4.5623E+04  0.0000E+00  0.0000E+00  0.0000E+00
  37.143s  8.0000E+03  0.0000E+00  0.0000E+00  0.0000E+00  9.0000E+01  9.0000E+01  9.0000E+01  0.0000E+00  6.5605E-01

  rolling -8.0007E+03  2.9698E+02 -1.0925E+04  2.6317E+03 -1.5393E+04  1.1296E+03  7.0706E+02  0.0000E+00  0.0000E+00
 averages -8.0146E+03  0.0000E+00  6.0846E+03 -5.6918E+04  1.6523E+04  4.6479E+04  0.0000E+00  0.0000E+00  0.0000E+00
           8.0000E+03  0.0000E+00  0.0000E+00  0.0000E+00  9.0000E+01  9.0000E+01  9.0000E+01  0.0000E+00 -1.0823E-01
 ------------------------------------------------------------------------------------------------------------------------
   109700 -8.0002E+03  2.9150E+02 -1.0800E+04  2.7091E+03 -1.5324E+04  1.1113E+03  7.0345E+02  0.0000E+00  0.0000E+00
  54.850p -7.3881E+03  0.0000E+00  4.3066E+03 -5.8039E+04  1.6494E+04  4.5851E+04  0.0000E+00  0.0000E+00  0.0000E+00
  37.936s  8.0000E+03  0.0000E+00  0.0000E+00  0.0000E+00  9.0000E+01  9.0000E+01  9.0000E+01  0.0000E+00  1.0312E+00

  rolling -8.0008E+03  2.9630E+02 -1.0940E+04  2.6393E+03 -1.5413E+04  1.1282E+03  7.0597E+02  0.0000E+00  0.0000E+00
 averages -8.0298E+03  0.0000E+00  6.0507E+03 -5.7045E+04  1.6552E+04  4.6544E+04  0.0000E+00  0.0000E+00  0.0000E+00
           8.0000E+03  0.0000E+00  0.0000E+00  0.0000E+00  9.0000E+01  9.0000E+01  9.0000E+01  0.0000E+00 -9.4366E-02
 ------------------------------------------------------------------------------------------------------------------------
   109800 -8.0012E+03  3.0988E+02 -1.0906E+04  2.5534E+03 -1.5278E+04  1.1484E+03  6.7003E+02  0.0000E+00  0.0000E+00
  54.900p -8.2730E+03  0.0000E+00  7.5595E+03 -5.5948E+04  1.6145E+04  4.7363E+04  0.0000E+00  0.0000E+00  0.0000E+00
  38.724s  8.0000E+03  0.0000E+00  0.0000E+00  0.0000E+00  9.0000E+01  9.0000E+01  9.0000E+01  0.0000E+00 -9.3952E-01

  rolling -8.0009E+03  2.9551E+02 -1.0945E+04  2.6372E+03 -1.5410E+04  1.1264E+03  7.0123E+02  0.0000E+00  0.0000E+00
 averages -8.0492E+03  0.0000E+00  6.0529E+03 -5.7026E+04  1.6548E+04  4.6531E+04  0.0000E+00  0.0000E+00  0.0000E+00
           8.0000E+03  0.0000E+00  0.0000E+00  0.0000E+00  9.0000E+01  9.0000E+01  9.0000E+01  0.0000E+00 -1.0663E-01
 ------------------------------------------------------------------------------------------------------------------------
 ------------------------------------------------------------------------------------------------------------------------

     step     eng_tot    temp_tot     eng_cfg     eng_vdw     eng_cou     eng_bnd     eng_ang     eng_dih     eng_tet
 time          eng_pv    temp_rot     vir_cfg     vir_vdw     vir_cou     vir_bnd     vir_ang     vir_con     vir_tet
 cpu time      volume    temp_shl     eng_shl     vir_shl       alpha        beta       gamma     vir_pmf       press

 ------------------------------------------------------------------------------------------------------------------------
   109900 -8.0005E+03  3.1633E+02 -1.0931E+04  2.6372E+03 -1.5354E+04  1.1447E+03  6.4150E+02  0.0000E+00  0.0000E+00
  54.950p -8.1026E+03  0.0000E+00  7.2963E+03 -5.7038E+04  1.6546E+04  4.7788E+04  0.0000E+00  0.0000E+00  0.0000E+00
  39.512s  8.0000E+03  0.0000E+00  0.0000E+00  0.0000E+00  9.0000E+01  9.0000E+01  9.0000E+01  0.0000E+00 -6.7191E-01

  rolling -8.0010E+03  2.9550E+02 -1.0946E+04  2.6186E+03 -1.5386E+04  1.1249E+03  6.9601E+02  0.0000E+00  0.0000E+00
 averages -8.0987E+03  0.0000E+00  6.1994E+03 -5.6788E+04  1.6507E+04  4.6481E+04  0.0000E+00  0.0000E+00  0.0000E+00
           8.0000E+03  0.0000E+00  0.0000E+00  0.0000E+00  9.0000E+01  9.0000E+01  9.0000E+01  0.0000E+00 -2.0672E-01
 ------------------------------------------------------------------------------------------------------------------------
   110000 -8.0003E+03  3.0496E+02 -1.0827E+04  2.5471E+03 -1.5151E+04  1.0767E+03  7.0104E+02  0.0000E+00  0.0000E+00
  55.000p -6.8512E+03  0.0000E+00  3.2875E+03 -5.5905E+04  1.6311E+04  4.2881E+04  0.0000E+00  0.0000E+00  0.0000E+00
  40.306s  8.0000E+03  0.0000E+00  0.0000E+00  0.0000E+00  9.0000E+01  9.0000E+01  9.0000E+01  0.0000E+00  1.9105E+00

  rolling -8.0010E+03  2.9592E+02 -1.0938E+04  2.6048E+03 -1.5362E+04  1.1240E+03  6.9486E+02  0.0000E+00  0.0000E+00
 averages -8.1064E+03  0.0000E+00  6.2676E+03 -5.6625E+04  1.6488E+04  4.6404E+04  0.0000E+00  0.0000E+00  0.0000E+00
           8.0000E+03  0.0000E+00  0.0000E+00  0.0000E+00  9.0000E+01  9.0000E+01  9.0000E+01  0.0000E+00 -2.4755E-01
 ------------------------------------------------------------------------------------------------------------------------
   110100 -8.0024E+03  3.1175E+02 -1.0935E+04  2.6413E+03 -1.5429E+04  1.0860E+03  7.6613E+02  0.0000E+00  0.0000E+00
  55.050p -8.1522E+03  0.0000E+00  7.2030E+03 -5.7081E+04  1.6845E+04  4.7439E+04  0.0000E+00  0.0000E+00  0.0000E+00
  41.245s  8.0000E+03  0.0000E+00  0.0000E+00  0.0000E+00  9.0000E+01  9.0000E+01  9.0000E+01  0.0000E+00 -6.7051E-01

  rolling -8.0009E+03  2.9715E+02 -1.0928E+04  2.5994E+03 -1.5345E+04  1.1250E+03  6.9229E+02  0.0000E+00  0.0000E+00
 averages -8.0859E+03  0.0000E+00  6.2960E+03 -5.6568E+04  1.6485E+04  4.6379E+04  0.0000E+00  0.0000E+00  0.0000E+00
           8.0000E+03  0.0000E+00  0.0000E+00  0.0000E+00  9.0000E+01  9.0000E+01  9.0000E+01  0.0000E+00 -2.5027E-01
 ------------------------------------------------------------------------------------------------------------------------
   110200 -8.0022E+03  3.1055E+02 -1.0981E+04  2.6689E+03 -1.5529E+04  1.0926E+03  7.8639E+02  0.0000E+00  0.0000E+00
  55.100p -8.5263E+03  0.0000E+00  8.1292E+03 -5.7546E+04  1.6825E+04  4.8851E+04  0.0000E+00  0.0000E+00  0.0000E+00
  42.093s  8.0000E+03  0.0000E+00  0.0000E+00  0.0000E+00  9.0000E+01  9.0000E+01  9.0000E+01  0.0000E+00 -1.3194E+00

  rolling -8.0008E+03  2.9834E+02 -1.0915E+04  2.6187E+03 -1.5357E+04  1.1287E+03  6.9497E+02  0.0000E+00  0.0000E+00
 averages -7.9911E+03  0.0000E+00  6.1127E+03 -5.6833E+04  1.6523E+04  4.6423E+04  0.0000E+00  0.0000E+00  0.0000E+00
           8.0000E+03  0.0000E+00  0.0000E+00  0.0000E+00  9.0000E+01  9.0000E+01  9.0000E+01  0.0000E+00 -1.0879E-01
 ------------------------------------------------------------------------------------------------------------------------
   110300 -8.0006E+03  2.9656E+02 -1.0900E+04  2.5401E+03 -1.5267E+04  1.0635E+03  7.6382E+02  0.0000E+00  0.0000E+00
  55.150p -7.1424E+03  0.0000E+00  3.5216E+03 -5.5914E+04  1.6585E+04  4.2851E+04  0.0000E+00  0.0000E+00  0.0000E+00
  42.903s  8.0000E+03  0.0000E+00  0.0000E+00  0.0000E+00  9.0000E+01  9.0000E+01  9.0000E+01  0.0000E+00  1.6362E+00

  rolling -8.0007E+03  2.9949E+02 -1.0902E+04  2.6192E+03 -1.5350E+04  1.1306E+03  6.9820E+02  0.0000E+00  0.0000E+00
 averages -7.9530E+03  0.0000E+00  6.0928E+03 -5.6847E+04  1.6523E+04  4.6418E+04  0.0000E+00  0.0000E+00  0.0000E+00
           8.0000E+03  0.0000E+00  0.0000E+00  0.0000E+00  9.0000E+01  9.0000E+01  9.0000E+01  0.0000E+00 -7.9633E-02
 ------------------------------------------------------------------------------------------------------------------------
   110400 -8.0019E+03  3.0546E+02 -1.1037E+04  2.5276E+03 -1.5328E+04  1.1097E+03  6.5329E+02  0.0000E+00  0.0000E+00
  55.200p -8.7078E+03  0.0000E+00  8.2494E+03 -5.5660E+04  1.6305E+04  4.7604E+04  0.0000E+00  0.0000E+00  0.0000E+00
  43.692s  8.0000E+03  0.0000E+00  0.0000E+00  0.0000E+00  9.0000E+01  9.0000E+01  9.0000E+01  0.0000E+00 -1.4708E+00

  rolling -8.0006E+03  3.0008E+02 -1.0891E+04  2.6033E+03 -1.5323E+04  1.1307E+03  6.9759E+02  0.0000E+00  0.0000E+00
 averages -7.9649E+03  0.0000E+00  6.1913E+03 -5.6648E+04  1.6503E+04  4.6337E+04  0.0000E+00  0.0000E+00  0.0000E+00
           8.0000E+03  0.0000E+00  0.0000E+00  0.0000E+00  9.0000E+01  9.0000E+01  9.0000E+01  0.0000E+00 -1.3884E-01
 ------------------------------------------------------------------------------------------------------------------------
   110500 -8.0020E+03  2.9778E+02 -1.1007E+04  2.5049E+03 -1.5333E+04  1.1249E+03  6.9655E+02  0.0000E+00  0.0000E+00
  55.250p -9.0849E+03  0.0000E+00  9.0903E+03 -5.5305E+04  1.5854E+04  4.8542E+04  0.0000E+00  0.0000E+00  0.0000E+00
  44.481s  8.0000E+03  0.0000E+00  0.0000E+00  0.0000E+00  9.0000E+01  9.0000E+01  9.0000E+01  0.0000E+00 -2.1497E+00

  rolling -8.0005E+03  3.0017E+02 -1.0885E+04  2.5951E+03 -1.5309E+04  1.1313E+03  6.9717E+02  0.0000E+00  0.0000E+00
 averages -7.9791E+03  0.0000E+00  6.2565E+03 -5.6539E+04  1.6464E+04  4.6331E+04  0.0000E+00  0.0000E+00  0.0000E+00
           8.0000E+03  0.0000E+00  0.0000E+00  0.0000E+00  9.0000E+01  9.0000E+01  9.0000E+01  0.0000E+00 -1.8214E-01
 ------------------------------------------------------------------------------------------------------------------------
   110600 -8.0010E+03  2.9423E+02 -1.0998E+04  2.5990E+03 -1.5379E+04  1.0649E+03  7.1709E+02  0.0000E+00  0.0000E+00
  55.300p -7.4546E+03  0.0000E+00  4.0494E+03 -5.6497E+04  1.6156E+04  4.4390E+04  0.0000E+00  0.0000E+00  0.0000E+00
  45.275s  8.0000E+03  0.0000E+00  0.0000E+00  0.0000E+00  9.0000E+01  9.0000E+01  9.0000E+01  0.0000E+00  1.2441E+00

  rolling -8.0005E+03  3.0001E+02 -1.0887E+04  2.5799E+03 -1.5295E+04  1.1309E+03  6.9668E+02  0.0000E+00  0.0000E+00
 averages -8.0278E+03  0.0000E+00  6.3878E+03 -5.6332E+04  1.6404E+04  4.6316E+04  0.0000E+00  0.0000E+00  0.0000E+00
           8.0000E+03  0.0000E+00  0.0000E+00  0.0000E+00  9.0000E+01  9.0000E+01  9.0000E+01  0.0000E+00 -2.7391E-01
 ------------------------------------------------------------------------------------------------------------------------
 ------------------------------------------------------------------------------------------------------------------------

     step     eng_tot    temp_tot     eng_cfg     eng_vdw     eng_cou     eng_bnd     eng_ang     eng_dih     eng_tet
 time          eng_pv    temp_rot     vir_cfg     vir_vdw     vir_cou     vir_bnd     vir_ang     vir_con     vir_tet
 cpu time      volume    temp_shl     eng_shl     vir_shl       alpha        beta       gamma     vir_pmf       press

 ------------------------------------------------------------------------------------------------------------------------
   110700 -8.0005E+03  3.0031E+02 -1.1060E+04  2.6902E+03 -1.5632E+04  1.1343E+03  7.4762E+02  0.0000E+00  0.0000E+00
  55.350p -7.8022E+03  0.0000E+00  5.2089E+03 -5.7749E+04  1.6527E+04  4.6431E+04  0.0000E+00  0.0000E+00  0.0000E+00
  46.069s  8.0000E+03  0.0000E+00  0.0000E+00  0.0000E+00  9.0000E+01  9.0000E+01  9.0000E+01  0.0000E+00  5.3523E-01

  rolling -8.0006E+03  2.9932E+02 -1.0894E+04  2.5938E+03 -1.5315E+04  1.1303E+03  6.9675E+02  0.0000E+00  0.0000E+00
 averages -8.0039E+03  0.0000E+00  6.2615E+03 -5.6503E+04  1.6395E+04  4.6369E+04  0.0000E+00  0.0000E+00  0.0000E+00
           8.0000E+03  0.0000E+00  0.0000E+00  0.0000E+00  9.0000E+01  9.0000E+01  9.0000E+01  0.0000E+00 -1.9706E-01
 ------------------------------------------------------------------------------------------------------------------------
   110800 -8.0004E+03  2.8717E+02 -1.0929E+04  2.6518E+03 -1.5557E+04  1.2112E+03  7.6433E+02  0.0000E+00  0.0000E+00
  55.400p -9.3264E+03  0.0000E+00  9.5177E+03 -5.7218E+04  1.6657E+04  5.0079E+04  0.0000E+00  0.0000E+00  0.0000E+00
  46.857s  8.0000E+03  0.0000E+00  0.0000E+00  0.0000E+00  9.0000E+01  9.0000E+01  9.0000E+01  0.0000E+00 -2.5861E+00

  rolling -8.0006E+03  2.9936E+02 -1.0916E+04  2.5904E+03 -1.5334E+04  1.1287E+03  6.9890E+02  0.0000E+00  0.0000E+00
 averages -8.0642E+03  0.0000E+00  6.3798E+03 -5.6456E+04  1.6403E+04  4.6433E+04  0.0000E+00  0.0000E+00  0.0000E+00
           8.0000E+03  0.0000E+00  0.0000E+00  0.0000E+00  9.0000E+01  9.0000E+01  9.0000E+01  0.0000E+00 -2.7733E-01
 ------------------------------------------------------------------------------------------------------------------------
   110900 -8.0013E+03  3.0279E+02 -1.1074E+04  2.8022E+03 -1.5634E+04  1.0608E+03  6.9757E+02  0.0000E+00  0.0000E+00
  55.450p -6.7239E+03  0.0000E+00  2.0555E+03 -5.9243E+04  1.6698E+04  4.4600E+04  0.0000E+00  0.0000E+00  0.0000E+00
  47.645s  8.0000E+03  0.0000E+00  0.0000E+00  0.0000E+00  9.0000E+01  9.0000E+01  9.0000E+01  0.0000E+00  2.7223E+00

  rolling -8.0007E+03  2.9789E+02 -1.0928E+04  2.6094E+03 -1.5368E+04  1.1264E+03  7.0366E+02  0.0000E+00  0.0000E+00
 averages -8.0502E+03  0.0000E+00  6.2272E+03 -5.6705E+04  1.6444E+04  4.6488E+04  0.0000E+00  0.0000E+00  0.0000E+00
           8.0000E+03  0.0000E+00  0.0000E+00  0.0000E+00  9.0000E+01  9.0000E+01  9.0000E+01  0.0000E+00 -1.9315E-01
 ------------------------------------------------------------------------------------------------------------------------
   111000 -8.0014E+03  3.0002E+02 -1.1033E+04  2.7056E+03 -1.5451E+04  1.0948E+03  6.1723E+02  0.0000E+00  0.0000E+00
  55.500p -7.6938E+03  0.0000E+00  4.9495E+03 -5.8061E+04  1.6479E+04  4.6531E+04  0.0000E+00  0.0000E+00  0.0000E+00
  48.438s  8.0000E+03  0.0000E+00  0.0000E+00  0.0000E+00  9.0000E+01  9.0000E+01  9.0000E+01  0.0000E+00  7.0836E-01

  rolling -8.0008E+03  2.9716E+02 -1.0948E+04  2.6335E+03 -1.5412E+04  1.1258E+03  7.0444E+02  0.0000E+00  0.0000E+00
 averages -8.0303E+03  0.0000E+00  6.0718E+03 -5.7026E+04  1.6472E+04  4.6625E+04  0.0000E+00  0.0000E+00  0.0000E+00
           8.0000E+03  0.0000E+00  0.0000E+00  0.0000E+00  9.0000E+01  9.0000E+01  9.0000E+01  0.0000E+00 -9.6978E-02
 ------------------------------------------------------------------------------------------------------------------------
   111100 -8.0009E+03  2.8980E+02 -1.0897E+04  2.6079E+03 -1.5376E+04  1.1631E+03  7.0866E+02  0.0000E+00  0.0000E+00
  55.550p -8.7129E+03  0.0000E+00  7.9067E+03 -5.6734E+04  1.6095E+04  4.8546E+04  0.0000E+00  0.0000E+00  0.0000E+00
  49.349s  8.0000E+03  0.0000E+00  0.0000E+00  0.0000E+00  9.0000E+01  9.0000E+01  9.0000E+01  0.0000E+00 -1.4501E+00

  rolling -8.0009E+03  2.9582E+02 -1.0957E+04  2.6405E+03 -1.5425E+04  1.1246E+03  7.0327E+02  0.0000E+00  0.0000E+00
 averages -8.0336E+03  0.0000E+00  5.9879E+03 -5.7128E+04  1.6434E+04  4.6681E+04  0.0000E+00  0.0000E+00  0.0000E+00
           8.0000E+03  0.0000E+00  0.0000E+00  0.0000E+00  9.0000E+01  9.0000E+01  9.0000E+01  0.0000E+00 -5.7992E-02
 ------------------------------------------------------------------------------------------------------------------------
   111200 -8.0014E+03  2.9721E+02 -1.0904E+04  2.5402E+03 -1.5239E+04  1.0639E+03  7.3166E+02  0.0000E+00  0.0000E+00
  55.600p -7.8003E+03  0.0000E+00  5.5174E+03 -5.5775E+04  1.6175E+04  4.5118E+04  0.0000E+00  0.0000E+00  0.0000E+00
  50.196s  8.0000E+03  0.0000E+00  0.0000E+00  0.0000E+00  9.0000E+01  9.0000E+01  9.0000E+01  0.0000E+00  2.8229E-01

  rolling -8.0010E+03  2.9530E+02 -1.0964E+04  2.6255E+03 -1.5414E+04  1.1225E+03  7.0186E+02  0.0000E+00  0.0000E+00
 averages -8.0810E+03  0.0000E+00  6.0834E+03 -5.6931E+04  1.6365E+04  4.6650E+04  0.0000E+00  0.0000E+00  0.0000E+00
           8.0000E+03  0.0000E+00  0.0000E+00  0.0000E+00  9.0000E+01  9.0000E+01  9.0000E+01  0.0000E+00 -1.3021E-01
 ------------------------------------------------------------------------------------------------------------------------
   111300 -8.0020E+03  3.0302E+02 -1.0892E+04  2.7559E+03 -1.5372E+04  1.0612E+03  6.6275E+02  0.0000E+00  0.0000E+00
  55.650p -6.8283E+03  0.0000E+00  2.9259E+03 -5.8673E+04  1.6373E+04  4.5226E+04  0.0000E+00  0.0000E+00  0.0000E+00
  51.005s  8.0000E+03  0.0000E+00  0.0000E+00  0.0000E+00  9.0000E+01  9.0000E+01  9.0000E+01  0.0000E+00  2.1310E+00

  rolling -8.0010E+03  2.9551E+02 -1.0965E+04  2.6261E+03 -1.5413E+04  1.1231E+03  6.9890E+02  0.0000E+00  0.0000E+00
 averages -8.0742E+03  0.0000E+00  6.0705E+03 -5.6932E+04  1.6335E+04  4.6668E+04  0.0000E+00  0.0000E+00  0.0000E+00
           8.0000E+03  0.0000E+00  0.0000E+00  0.0000E+00  9.0000E+01  9.0000E+01  9.0000E+01  0.0000E+00 -1.1858E-01
 ------------------------------------------------------------------------------------------------------------------------
   111400 -8.0009E+03  3.0936E+02 -1.0907E+04  2.9985E+03 -1.5848E+04  1.1916E+03  7.5061E+02  0.0000E+00  0.0000E+00
  55.700p -7.5630E+03  0.0000E+00  5.4000E+03 -6.1777E+04  1.6876E+04  5.0301E+04  0.0000E+00  0.0000E+00  0.0000E+00
  51.793s  8.0000E+03  0.0000E+00  0.0000E+00  0.0000E+00  9.0000E+01  9.0000E+01  9.0000E+01  0.0000E+00  5.2792E-01

  rolling -8.0010E+03  2.9667E+02 -1.0964E+04  2.6662E+03 -1.5459E+04  1.1287E+03  7.0088E+02  0.0000E+00  0.0000E+00
 averages -7.9520E+03  0.0000E+00  5.7649E+03 -5.7451E+04  1.6357E+04  4.6859E+04  0.0000E+00  0.0000E+00  0.0000E+00
           8.0000E+03  0.0000E+00  0.0000E+00  0.0000E+00  9.0000E+01  9.0000E+01  9.0000E+01  0.0000E+00  1.0588E-01
 ------------------------------------------------------------------------------------------------------------------------
 ------------------------------------------------------------------------------------------------------------------------

     step     eng_tot    temp_tot     eng_cfg     eng_vdw     eng_cou     eng_bnd     eng_ang     eng_dih     eng_tet
 time          eng_pv    temp_rot     vir_cfg     vir_vdw     vir_cou     vir_bnd     vir_ang     vir_con     vir_tet
 cpu time      volume    temp_shl     eng_shl     vir_shl       alpha        beta       gamma     vir_pmf       press

 ------------------------------------------------------------------------------------------------------------------------
   111500 -7.9999E+03  3.0954E+02 -1.0927E+04  2.9492E+03 -1.5756E+04  1.1803E+03  6.9964E+02  0.0000E+00  0.0000E+00
  55.750p -6.5217E+03  0.0000E+00  2.2256E+03 -6.1088E+04  1.6603E+04  4.6712E+04  0.0000E+00  0.0000E+00  0.0000E+00
  52.586s  8.0000E+03  0.0000E+00  0.0000E+00  0.0000E+00  9.0000E+01  9.0000E+01  9.0000E+01  0.0000E+00  2.6981E+00

  rolling -8.0009E+03  2.9830E+02 -1.0961E+04  2.7036E+03 -1.5501E+04  1.1333E+03  7.0349E+02  0.0000E+00  0.0000E+00
 averages -7.8214E+03  0.0000E+00  5.4629E+03 -5.7940E+04  1.6407E+04  4.6996E+04  0.0000E+00  0.0000E+00  0.0000E+00
           8.0000E+03  0.0000E+00  0.0000E+00  0.0000E+00  9.0000E+01  9.0000E+01  9.0000E+01  0.0000E+00  3.3441E-01
 ------------------------------------------------------------------------------------------------------------------------
   111600 -8.0003E+03  2.9426E+02 -1.0853E+04  2.5734E+03 -1.5384E+04  1.0881E+03  8.6902E+02  0.0000E+00  0.0000E+00
  55.800p -7.8969E+03  0.0000E+00  5.8114E+03 -5.6149E+04  1.6066E+04  4.5894E+04  0.0000E+00  0.0000E+00  0.0000E+00
  53.374s  8.0000E+03  0.0000E+00  0.0000E+00  0.0000E+00  9.0000E+01  9.0000E+01  9.0000E+01  0.0000E+00  4.1372E-02

  rolling -8.0008E+03  2.9941E+02 -1.0955E+04  2.7295E+03 -1.5527E+04  1.1369E+03  7.0635E+02  0.0000E+00  0.0000E+00
 averages -7.7261E+03  0.0000E+00  5.2514E+03 -5.8276E+04  1.6448E+04  4.7080E+04  0.0000E+00  0.0000E+00  0.0000E+00
           8.0000E+03  0.0000E+00  0.0000E+00  0.0000E+00  9.0000E+01  9.0000E+01  9.0000E+01  0.0000E+00  4.9390E-01
 ------------------------------------------------------------------------------------------------------------------------
   111700 -8.0011E+03  2.9295E+02 -1.0924E+04  2.7088E+03 -1.5494E+04  1.1499E+03  7.1102E+02  0.0000E+00  0.0000E+00
  55.850p -8.1544E+03  0.0000E+00  6.3052E+03 -5.8010E+04  1.6365E+04  4.7950E+04  0.0000E+00  0.0000E+00  0.0000E+00
  54.162s  8.0000E+03  0.0000E+00  0.0000E+00  0.0000E+00  9.0000E+01  9.0000E+01  9.0000E+01  0.0000E+00 -3.1373E-01

  rolling -8.0007E+03  2.9960E+02 -1.0946E+04  2.7218E+03 -1.5515E+04  1.1380E+03  7.0945E+02  0.0000E+00  0.0000E+00
 averages -7.7355E+03  0.0000E+00  5.3152E+03 -5.8176E+04  1.6426E+04  4.7066E+04  0.0000E+00  0.0000E+00  0.0000E+00
           8.0000E+03  0.0000E+00  0.0000E+00  0.0000E+00  9.0000E+01  9.0000E+01  9.0000E+01  0.0000E+00  4.5296E-01
 ------------------------------------------------------------------------------------------------------------------------
   111800 -8.0015E+03  2.9748E+02 -1.1028E+04  2.7093E+03 -1.5619E+04  1.1407E+03  7.4103E+02  0.0000E+00  0.0000E+00
  55.900p -7.8546E+03  0.0000E+00  5.3194E+03 -5.8061E+04  1.6455E+04  4.6925E+04  0.0000E+00  0.0000E+00  0.0000E+00
  54.950s  8.0000E+03  0.0000E+00  0.0000E+00  0.0000E+00  9.0000E+01  9.0000E+01  9.0000E+01  0.0000E+00  4.2111E-01

  rolling -8.0007E+03  2.9892E+02 -1.0936E+04  2.7317E+03 -1.5518E+04  1.1386E+03  7.1172E+02  0.0000E+00  0.0000E+00
 averages -7.6914E+03  0.0000E+00  5.1786E+03 -5.8310E+04  1.6428E+04  4.7061E+04  0.0000E+00  0.0000E+00  0.0000E+00
           8.0000E+03  0.0000E+00  0.0000E+00  0.0000E+00  9.0000E+01  9.0000E+01  9.0000E+01  0.0000E+00  5.3695E-01
 ------------------------------------------------------------------------------------------------------------------------
   111900 -8.0025E+03  3.0181E+02 -1.1118E+04  2.6750E+03 -1.5558E+04  1.0478E+03  7.1763E+02  0.0000E+00  0.0000E+00
  55.950p -7.6775E+03  0.0000E+00  4.7359E+03 -5.7523E+04  1.6395E+04  4.5864E+04  0.0000E+00  0.0000E+00  0.0000E+00
  55.745s  8.0000E+03  0.0000E+00  0.0000E+00  0.0000E+00  9.0000E+01  9.0000E+01  9.0000E+01  0.0000E+00  8.7858E-01

  rolling -8.0007E+03  2.9901E+02 -1.0939E+04  2.7263E+03 -1.5518E+04  1.1385E+03  7.1342E+02  0.0000E+00  0.0000E+00
 averages -7.7073E+03  0.0000E+00  5.2209E+03 -5.8244E+04  1.6403E+04  4.7063E+04  0.0000E+00  0.0000E+00  0.0000E+00
           8.0000E+03  0.0000E+00  0.0000E+00  0.0000E+00  9.0000E+01  9.0000E+01  9.0000E+01  0.0000E+00  5.0927E-01
 ------------------------------------------------------------------------------------------------------------------------
   112000 -8.0033E+03  2.9354E+02 -1.1063E+04  2.7119E+03 -1.5445E+04  1.0647E+03  6.0547E+02  0.0000E+00  0.0000E+00
  56.000p -8.0001E+03  0.0000E+00  5.4541E+03 -5.7947E+04  1.6208E+04  4.7193E+04  0.0000E+00  0.0000E+00  0.0000E+00
  56.533s  8.0000E+03  0.0000E+00  0.0000E+00  0.0000E+00  9.0000E+01  9.0000E+01  9.0000E+01  0.0000E+00  2.7543E-01

  rolling -8.0008E+03  2.9852E+02 -1.0942E+04  2.7252E+03 -1.5520E+04  1.1384E+03  7.1473E+02  0.0000E+00  0.0000E+00
 averages -7.7248E+03  0.0000E+00  5.2407E+03 -5.8213E+04  1.6378E+04  4.7076E+04  0.0000E+00  0.0000E+00  0.0000E+00
           8.0000E+03  0.0000E+00  0.0000E+00  0.0000E+00  9.0000E+01  9.0000E+01  9.0000E+01  0.0000E+00  4.8911E-01
 ------------------------------------------------------------------------------------------------------------------------
   112100 -8.0025E+03  2.8673E+02 -1.0994E+04  2.4917E+03 -1.5227E+04  1.0477E+03  6.9338E+02  0.0000E+00  0.0000E+00
  56.050p -8.7342E+03  0.0000E+00  7.5233E+03 -5.5076E+04  1.6207E+04  4.6393E+04  0.0000E+00  0.0000E+00  0.0000E+00
  57.466s  8.0000E+03  0.0000E+00  0.0000E+00  0.0000E+00  9.0000E+01  9.0000E+01  9.0000E+01  0.0000E+00 -1.2302E+00

  rolling -8.0008E+03  2.9890E+02 -1.0957E+04  2.7171E+03 -1.5527E+04  1.1374E+03  7.1561E+02  0.0000E+00  0.0000E+00
 averages -7.7874E+03  0.0000E+00  5.4035E+03 -5.8090E+04  1.6397E+04  4.7097E+04  0.0000E+00  0.0000E+00  0.0000E+00
           8.0000E+03  0.0000E+00  0.0000E+00  0.0000E+00  9.0000E+01  9.0000E+01  9.0000E+01  0.0000E+00  3.8305E-01
 ------------------------------------------------------------------------------------------------------------------------
   112200 -8.0024E+03  2.9743E+02 -1.1072E+04  2.6376E+03 -1.5442E+04  1.0742E+03  6.5782E+02  0.0000E+00  0.0000E+00
  56.100p -7.8164E+03  0.0000E+00  5.0696E+03 -5.6996E+04  1.6519E+04  4.5547E+04  0.0000E+00  0.0000E+00  0.0000E+00
  58.320s  8.0000E+03  0.0000E+00  0.0000E+00  0.0000E+00  9.0000E+01  9.0000E+01  9.0000E+01  0.0000E+00  5.9099E-01

  rolling -8.0009E+03  2.9845E+02 -1.0967E+04  2.7194E+03 -1.5537E+04  1.1358E+03  7.1482E+02  0.0000E+00  0.0000E+00
 averages -7.8158E+03  0.0000E+00  5.4349E+03 -5.8110E+04  1.6428E+04  4.7117E+04  0.0000E+00  0.0000E+00  0.0000E+00
           8.0000E+03  0.0000E+00  0.0000E+00  0.0000E+00  9.0000E+01  9.0000E+01  9.0000E+01  0.0000E+00  3.5547E-01
 ------------------------------------------------------------------------------------------------------------------------
 ------------------------------------------------------------------------------------------------------------------------

     step     eng_tot    temp_tot     eng_cfg     eng_vdw     eng_cou     eng_bnd     eng_ang     eng_dih     eng_tet
 time          eng_pv    temp_rot     vir_cfg     vir_vdw     vir_cou     vir_bnd     vir_ang     vir_con     vir_tet
 cpu time      volume    temp_shl     eng_shl     vir_shl       alpha        beta       gamma     vir_pmf       press

 ------------------------------------------------------------------------------------------------------------------------
   112300 -8.0021E+03  2.9429E+02 -1.0978E+04  2.6293E+03 -1.5426E+04  1.0973E+03  7.2146E+02  0.0000E+00  0.0000E+00
  56.150p -8.2949E+03  0.0000E+00  6.6324E+03 -5.6848E+04  1.6321E+04  4.7160E+04  0.0000E+00  0.0000E+00  0.0000E+00
  59.130s  8.0000E+03  0.0000E+00  0.0000E+00  0.0000E+00  9.0000E+01  9.0000E+01  9.0000E+01  0.0000E+00 -5.1895E-01

  rolling -8.0010E+03  2.9782E+02 -1.0978E+04  2.7179E+03 -1.5545E+04  1.1342E+03  7.1441E+02  0.0000E+00  0.0000E+00
 averages -7.8547E+03  0.0000E+00  5.4871E+03 -5.8080E+04  1.6424E+04  4.7143E+04  0.0000E+00  0.0000E+00  0.0000E+00
           8.0000E+03  0.0000E+00  0.0000E+00  0.0000E+00  9.0000E+01  9.0000E+01  9.0000E+01  0.0000E+00  3.1122E-01
 ------------------------------------------------------------------------------------------------------------------------
   112400 -8.0024E+03  3.0375E+02 -1.0986E+04  2.5835E+03 -1.5463E+04  1.0997E+03  7.9381E+02  0.0000E+00  0.0000E+00
  56.200p -8.1918E+03  0.0000E+00  6.7701E+03 -5.6194E+04  1.6275E+04  4.6689E+04  0.0000E+00  0.0000E+00  0.0000E+00
  59.924s  8.0000E+03  0.0000E+00  0.0000E+00  0.0000E+00  9.0000E+01  9.0000E+01  9.0000E+01  0.0000E+00 -4.8411E-01

  rolling -8.0011E+03  2.9652E+02 -1.0981E+04  2.6909E+03 -1.5519E+04  1.1293E+03  7.1726E+02  0.0000E+00  0.0000E+00
 averages -7.9517E+03  0.0000E+00  5.7043E+03 -5.7709E+04  1.6392E+04  4.7021E+04  0.0000E+00  0.0000E+00  0.0000E+00
           8.0000E+03  0.0000E+00  0.0000E+00  0.0000E+00  9.0000E+01  9.0000E+01  9.0000E+01  0.0000E+00  1.4523E-01
 ------------------------------------------------------------------------------------------------------------------------
   112500 -8.0015E+03  3.1205E+02 -1.0994E+04  2.5739E+03 -1.5397E+04  1.0750E+03  7.5411E+02  0.0000E+00  0.0000E+00
  56.250p -7.8987E+03  0.0000E+00  6.2825E+03 -5.6147E+04  1.6134E+04  4.6295E+04  0.0000E+00  0.0000E+00  0.0000E+00
   1.012m  8.0000E+03  0.0000E+00  0.0000E+00  0.0000E+00  9.0000E+01  9.0000E+01  9.0000E+01  0.0000E+00 -3.7981E-02

  rolling -8.0011E+03  2.9572E+02 -1.0982E+04  2.6514E+03 -1.5479E+04  1.1245E+03  7.2099E+02  0.0000E+00  0.0000E+00
 averages -8.0746E+03  0.0000E+00  6.0300E+03 -5.7182E+04  1.6344E+04  4.6868E+04  0.0000E+00  0.0000E+00  0.0000E+00
           8.0000E+03  0.0000E+00  0.0000E+00  0.0000E+00  9.0000E+01  9.0000E+01  9.0000E+01  0.0000E+00 -8.8024E-02
 ------------------------------------------------------------------------------------------------------------------------
   112600 -8.0004E+03  3.1207E+02 -1.0952E+04  2.5959E+03 -1.5456E+04  1.1580E+03  7.5046E+02  0.0000E+00  0.0000E+00
  56.300p -7.7223E+03  0.0000E+00  5.8792E+03 -5.6418E+04  1.6030E+04  4.6268E+04  0.0000E+00  0.0000E+00  0.0000E+00
   1.025m  8.0000E+03  0.0000E+00  0.0000E+00  0.0000E+00  9.0000E+01  9.0000E+01  9.0000E+01  0.0000E+00  2.3765E-01

  rolling -8.0012E+03  2.9607E+02 -1.0984E+04  2.6351E+03 -1.5467E+04  1.1231E+03  7.2500E+02  0.0000E+00  0.0000E+00
 averages -8.1216E+03  0.0000E+00  6.1840E+03 -5.6966E+04  1.6327E+04  4.6822E+04  0.0000E+00  0.0000E+00  0.0000E+00
           8.0000E+03  0.0000E+00  0.0000E+00  0.0000E+00  9.0000E+01  9.0000E+01  9.0000E+01  0.0000E+00 -1.8849E-01
 ------------------------------------------------------------------------------------------------------------------------
   112700 -8.0013E+03  3.1149E+02 -1.0967E+04  2.6621E+03 -1.5516E+04  1.1118E+03  7.7491E+02  0.0000E+00  0.0000E+00
  56.350p -8.2887E+03  0.0000E+00  7.5053E+03 -5.7281E+04  1.6203E+04  4.8583E+04  0.0000E+00  0.0000E+00  0.0000E+00
   1.038m  8.0000E+03  0.0000E+00  0.0000E+00  0.0000E+00  9.0000E+01  9.0000E+01  9.0000E+01  0.0000E+00 -8.8056E-01

  rolling -8.0012E+03  2.9761E+02 -1.0987E+04  2.6391E+03 -1.5477E+04  1.1246E+03  7.2637E+02  0.0000E+00  0.0000E+00
 averages -8.0963E+03  0.0000E+00  6.1742E+03 -5.7010E+04  1.6330E+04  4.6854E+04  0.0000E+00  0.0000E+00  0.0000E+00
           8.0000E+03  0.0000E+00  0.0000E+00  0.0000E+00  9.0000E+01  9.0000E+01  9.0000E+01  0.0000E+00 -1.6086E-01
 ------------------------------------------------------------------------------------------------------------------------
   112800 -8.0013E+03  3.0279E+02 -1.0960E+04  2.6458E+03 -1.5414E+04  1.0469E+03  7.6194E+02  0.0000E+00  0.0000E+00
  56.400p -7.0161E+03  0.0000E+00  3.2743E+03 -5.7133E+04  1.6051E+04  4.4356E+04  0.0000E+00  0.0000E+00  0.0000E+00
   1.051m  8.0000E+03  0.0000E+00  0.0000E+00  0.0000E+00  9.0000E+01  9.0000E+01  9.0000E+01  0.0000E+00  1.8900E+00

  rolling -8.0011E+03  2.9896E+02 -1.0987E+04  2.6326E+03 -1.5474E+04  1.1251E+03  7.2968E+02  0.0000E+00  0.0000E+00
 averages -8.0946E+03  0.0000E+00  6.2377E+03 -5.6913E+04  1.6305E+04  4.6846E+04  0.0000E+00  0.0000E+00  0.0000E+00
           8.0000E+03  0.0000E+00  0.0000E+00  0.0000E+00  9.0000E+01  9.0000E+01  9.0000E+01  0.0000E+00 -1.8572E-01
 ------------------------------------------------------------------------------------------------------------------------
   112900 -7.9997E+03  2.9119E+02 -1.0942E+04  2.7535E+03 -1.5592E+04  1.1671E+03  7.2931E+02  0.0000E+00  0.0000E+00
  56.450p -7.6754E+03  0.0000E+00  4.7259E+03 -5.8614E+04  1.6553E+04  4.6787E+04  0.0000E+00  0.0000E+00  0.0000E+00
   1.064m  8.0000E+03  0.0000E+00  0.0000E+00  0.0000E+00  9.0000E+01  9.0000E+01  9.0000E+01  0.0000E+00  7.4074E-01

  rolling -8.0010E+03  2.9919E+02 -1.0980E+04  2.6305E+03 -1.5464E+04  1.1254E+03  7.2830E+02  0.0000E+00  0.0000E+00
 averages -8.0804E+03  0.0000E+00  6.2283E+03 -5.6885E+04  1.6288E+04  4.6825E+04  0.0000E+00  0.0000E+00  0.0000E+00
           8.0000E+03  0.0000E+00  0.0000E+00  0.0000E+00  9.0000E+01  9.0000E+01  9.0000E+01  0.0000E+00 -1.7620E-01
 ------------------------------------------------------------------------------------------------------------------------
   113000 -7.9999E+03  2.8979E+02 -1.1020E+04  2.8028E+03 -1.5682E+04  1.2206E+03  6.3866E+02  0.0000E+00  0.0000E+00
  56.500p -8.7022E+03  0.0000E+00  7.5042E+03 -5.9220E+04  1.6378E+04  5.0346E+04  0.0000E+00  0.0000E+00  0.0000E+00
   1.078m  8.0000E+03  0.0000E+00  0.0000E+00  0.0000E+00  9.0000E+01  9.0000E+01  9.0000E+01  0.0000E+00 -1.1755E+00

  rolling -8.0010E+03  2.9945E+02 -1.0979E+04  2.6336E+03 -1.5468E+04  1.1260E+03  7.2935E+02  0.0000E+00  0.0000E+00
 averages -8.0720E+03  0.0000E+00  6.2189E+03 -5.6937E+04  1.6302E+04  4.6854E+04  0.0000E+00  0.0000E+00  0.0000E+00
           8.0000E+03  0.0000E+00  0.0000E+00  0.0000E+00  9.0000E+01  9.0000E+01  9.0000E+01  0.0000E+00 -1.6625E-01
 ------------------------------------------------------------------------------------------------------------------------
 ------------------------------------------------------------------------------------------------------------------------

     step     eng_tot    temp_tot     eng_cfg     eng_vdw     eng_cou     eng_bnd     eng_ang     eng_dih     eng_tet
 time          eng_pv    temp_rot     vir_cfg     vir_vdw     vir_cou     vir_bnd     vir_ang     vir_con     vir_tet
 cpu time      volume    temp_shl     eng_shl     vir_shl       alpha        beta       gamma     vir_pmf       press

 ------------------------------------------------------------------------------------------------------------------------
   113100 -8.0011E+03  2.8096E+02 -1.1002E+04  2.7951E+03 -1.5518E+04  1.1016E+03  6.1950E+02  0.0000E+00  0.0000E+00
  56.550p -7.2154E+03  0.0000E+00  2.6573E+03 -5.9120E+04  1.6235E+04  4.5542E+04  0.0000E+00  0.0000E+00  0.0000E+00
[...]
  99.200p -5.9462E+03  0.0000E+00  8.0352E+02 -5.6431E+04  1.6146E+04  4.1089E+04  0.0000E+00  0.0000E+00  0.0000E+00
  12.621m  8.0000E+03  0.0000E+00  0.0000E+00  0.0000E+00  9.0000E+01  9.0000E+01  9.0000E+01  0.0000E+00  3.6111E+00

  rolling -8.0008E+03  2.9718E+02 -1.0837E+04  2.6622E+03 -1.5336E+04  1.1463E+03  6.9102E+02  0.0000E+00  0.0000E+00
 averages -7.6310E+03  0.0000E+00  5.2080E+03 -5.7376E+04  1.6221E+04  4.6363E+04  0.0000E+00  0.0000E+00  0.0000E+00
           8.0000E+03  0.0000E+00  0.0000E+00  0.0000E+00  9.0000E+01  9.0000E+01  9.0000E+01  0.0000E+00  4.9317E-01
 ------------------------------------------------------------------------------------------------------------------------
   198500 -7.9991E+03  2.9870E+02 -1.0763E+04  2.6296E+03 -1.5275E+04  1.2026E+03  6.7970E+02  0.0000E+00  0.0000E+00
  99.250p -7.7887E+03  0.0000E+00  5.9777E+03 -5.6957E+04  1.6199E+04  4.6735E+04  0.0000E+00  0.0000E+00  0.0000E+00
  12.634m  8.0000E+03  0.0000E+00  0.0000E+00  0.0000E+00  9.0000E+01  9.0000E+01  9.0000E+01  0.0000E+00 -1.1745E-02

  rolling -8.0006E+03  2.9889E+02 -1.0814E+04  2.6597E+03 -1.5316E+04  1.1509E+03  6.9104E+02  0.0000E+00  0.0000E+00
 averages -7.5878E+03  0.0000E+00  5.2308E+03 -5.7321E+04  1.6226E+04  4.6326E+04  0.0000E+00  0.0000E+00  0.0000E+00
           8.0000E+03  0.0000E+00  0.0000E+00  0.0000E+00  9.0000E+01  9.0000E+01  9.0000E+01  0.0000E+00  5.0093E-01
 ------------------------------------------------------------------------------------------------------------------------
   198600 -7.9991E+03  2.9457E+02 -1.0795E+04  2.6340E+03 -1.5394E+04  1.2880E+03  6.7674E+02  0.0000E+00  0.0000E+00
  99.300p -9.5592E+03  0.0000E+00  1.0988E+04 -5.7031E+04  1.6218E+04  5.1801E+04  0.0000E+00  0.0000E+00  0.0000E+00
  12.648m  8.0000E+03  0.0000E+00  0.0000E+00  0.0000E+00  9.0000E+01  9.0000E+01  9.0000E+01  0.0000E+00 -3.4891E+00

  rolling -8.0004E+03  3.0012E+02 -1.0792E+04  2.6510E+03 -1.5290E+04  1.1551E+03  6.9242E+02  0.0000E+00  0.0000E+00
 averages -7.5826E+03  0.0000E+00  5.3448E+03 -5.7195E+04  1.6202E+04  4.6338E+04  0.0000E+00  0.0000E+00  0.0000E+00
           8.0000E+03  0.0000E+00  0.0000E+00  0.0000E+00  9.0000E+01  9.0000E+01  9.0000E+01  0.0000E+00  4.3977E-01
 ------------------------------------------------------------------------------------------------------------------------
 ------------------------------------------------------------------------------------------------------------------------

     step     eng_tot    temp_tot     eng_cfg     eng_vdw     eng_cou     eng_bnd     eng_ang     eng_dih     eng_tet
 time          eng_pv    temp_rot     vir_cfg     vir_vdw     vir_cou     vir_bnd     vir_ang     vir_con     vir_tet
 cpu time      volume    temp_shl     eng_shl     vir_shl       alpha        beta       gamma     vir_pmf       press

 ------------------------------------------------------------------------------------------------------------------------
   198700 -7.9993E+03  2.8497E+02 -1.0763E+04  2.9764E+03 -1.5504E+04  1.1151E+03  6.4947E+02  0.0000E+00  0.0000E+00
  99.350p -5.1526E+03  0.0000E+00 -2.6158E+03 -6.1485E+04  1.6153E+04  4.2717E+04  0.0000E+00  0.0000E+00  0.0000E+00
  12.661m  8.0000E+03  0.0000E+00  0.0000E+00  0.0000E+00  9.0000E+01  9.0000E+01  9.0000E+01  0.0000E+00  5.6692E+00

  rolling -8.0003E+03  3.0163E+02 -1.0783E+04  2.6636E+03 -1.5299E+04  1.1592E+03  6.9334E+02  0.0000E+00  0.0000E+00
 averages -7.5055E+03  0.0000E+00  5.2152E+03 -5.7355E+04  1.6204E+04  4.6365E+04  0.0000E+00  0.0000E+00  0.0000E+00
           8.0000E+03  0.0000E+00  0.0000E+00  0.0000E+00  9.0000E+01  9.0000E+01  9.0000E+01  0.0000E+00  5.4895E-01
 ------------------------------------------------------------------------------------------------------------------------
   198800 -7.9996E+03  2.9203E+02 -1.0877E+04  2.9575E+03 -1.5675E+04  1.1810E+03  6.5942E+02  0.0000E+00  0.0000E+00
  99.400p -6.3190E+03  0.0000E+00  8.9576E+02 -6.1350E+04  1.6459E+04  4.5786E+04  0.0000E+00  0.0000E+00  0.0000E+00
  12.674m  8.0000E+03  0.0000E+00  0.0000E+00  0.0000E+00  9.0000E+01  9.0000E+01  9.0000E+01  0.0000E+00  3.3676E+00

  rolling -8.0001E+03  3.0162E+02 -1.0776E+04  2.7083E+03 -1.5346E+04  1.1634E+03  6.9793E+02  0.0000E+00  0.0000E+00
 averages -7.3581E+03  0.0000E+00  4.7926E+03 -5.7953E+04  1.6244E+04  4.6501E+04  0.0000E+00  0.0000E+00  0.0000E+00
           8.0000E+03  0.0000E+00  0.0000E+00  0.0000E+00  9.0000E+01  9.0000E+01  9.0000E+01  0.0000E+00  8.3724E-01
 ------------------------------------------------------------------------------------------------------------------------
   198900 -8.0000E+03  2.8828E+02 -1.0871E+04  2.6710E+03 -1.5510E+04  1.2328E+03  7.3574E+02  0.0000E+00  0.0000E+00
  99.450p -9.9167E+03  0.0000E+00  1.1520E+04 -5.7594E+04  1.6583E+04  5.2531E+04  0.0000E+00  0.0000E+00  0.0000E+00
  12.687m  8.0000E+03  0.0000E+00  0.0000E+00  0.0000E+00  9.0000E+01  9.0000E+01  9.0000E+01  0.0000E+00 -3.9381E+00

  rolling -8.0001E+03  3.0083E+02 -1.0780E+04  2.7219E+03 -1.5364E+04  1.1641E+03  6.9880E+02  0.0000E+00  0.0000E+00
 averages -7.3458E+03  0.0000E+00  4.7063E+03 -5.8145E+04  1.6281E+04  4.6571E+04  0.0000E+00  0.0000E+00  0.0000E+00
           8.0000E+03  0.0000E+00  0.0000E+00  0.0000E+00  9.0000E+01  9.0000E+01  9.0000E+01  0.0000E+00  8.8544E-01
 ------------------------------------------------------------------------------------------------------------------------
   199000 -8.0013E+03  2.9068E+02 -1.0901E+04  2.5248E+03 -1.5137E+04  1.0590E+03  6.5188E+02  0.0000E+00  0.0000E+00
  99.500p -6.2763E+03  0.0000E+00  6.2702E+02 -5.5563E+04  1.6208E+04  3.9982E+04  0.0000E+00  0.0000E+00  0.0000E+00
  12.700m  8.0000E+03  0.0000E+00  0.0000E+00  0.0000E+00  9.0000E+01  9.0000E+01  9.0000E+01  0.0000E+00  3.5327E+00

  rolling -8.0001E+03  2.9940E+02 -1.0790E+04  2.7097E+03 -1.5358E+04  1.1602E+03  6.9807E+02  0.0000E+00  0.0000E+00
 averages -7.4105E+03  0.0000E+00  4.7964E+03 -5.7988E+04  1.6284E+04  4.6500E+04  0.0000E+00  0.0000E+00  0.0000E+00
           8.0000E+03  0.0000E+00  0.0000E+00  0.0000E+00  9.0000E+01  9.0000E+01  9.0000E+01  0.0000E+00  8.0435E-01
 ------------------------------------------------------------------------------------------------------------------------
   199100 -8.0007E+03  2.8580E+02 -1.0812E+04  2.5692E+03 -1.5175E+04  1.1195E+03  6.7459E+02  0.0000E+00  0.0000E+00
  99.550p -7.9770E+03  0.0000E+00  5.7528E+03 -5.6059E+04  1.6344E+04  4.5468E+04  0.0000E+00  0.0000E+00  0.0000E+00
  12.716m  8.0000E+03  0.0000E+00  0.0000E+00  0.0000E+00  9.0000E+01  9.0000E+01  9.0000E+01  0.0000E+00 -3.3939E-02

  rolling -8.0003E+03  2.9707E+02 -1.0799E+04  2.6886E+03 -1.5339E+04  1.1546E+03  6.9672E+02  0.0000E+00  0.0000E+00
 averages -7.5023E+03  0.0000E+00  4.9304E+03 -5.7710E+04  1.6266E+04  4.6375E+04  0.0000E+00  0.0000E+00  0.0000E+00
           8.0000E+03  0.0000E+00  0.0000E+00  0.0000E+00  9.0000E+01  9.0000E+01  9.0000E+01  0.0000E+00  6.8111E-01
 ------------------------------------------------------------------------------------------------------------------------
   199200 -8.0015E+03  2.9464E+02 -1.0820E+04  2.5847E+03 -1.5303E+04  1.2601E+03  6.3891E+02  0.0000E+00  0.0000E+00
  99.600p -9.7509E+03  0.0000E+00  1.1493E+04 -5.6321E+04  1.6411E+04  5.1403E+04  0.0000E+00  0.0000E+00  0.0000E+00
  12.730m  8.0000E+03  0.0000E+00  0.0000E+00  0.0000E+00  9.0000E+01  9.0000E+01  9.0000E+01  0.0000E+00 -3.8331E+00

  rolling -8.0004E+03  2.9585E+02 -1.0815E+04  2.6715E+03 -1.5335E+04  1.1513E+03  6.9733E+02  0.0000E+00  0.0000E+00
 averages -7.6199E+03  0.0000E+00  5.1750E+03 -5.7487E+04  1.6283E+04  4.6379E+04  0.0000E+00  0.0000E+00  0.0000E+00
           8.0000E+03  0.0000E+00  0.0000E+00  0.0000E+00  9.0000E+01  9.0000E+01  9.0000E+01  0.0000E+00  4.9759E-01
 ------------------------------------------------------------------------------------------------------------------------
   199300 -8.0028E+03  3.1673E+02 -1.0946E+04  2.6940E+03 -1.5334E+04  1.0511E+03  6.4306E+02  0.0000E+00  0.0000E+00
  99.650p -6.4396E+03  0.0000E+00  2.2826E+03 -5.7624E+04  1.6621E+04  4.3285E+04  0.0000E+00  0.0000E+00  0.0000E+00
  12.743m  8.0000E+03  0.0000E+00  0.0000E+00  0.0000E+00  9.0000E+01  9.0000E+01  9.0000E+01  0.0000E+00  2.7572E+00

  rolling -8.0006E+03  2.9570E+02 -1.0831E+04  2.6637E+03 -1.5341E+04  1.1494E+03  6.9743E+02  0.0000E+00  0.0000E+00
 averages -7.6842E+03  0.0000E+00  5.3114E+03 -5.7384E+04  1.6332E+04  4.6363E+04  0.0000E+00  0.0000E+00  0.0000E+00
           8.0000E+03  0.0000E+00  0.0000E+00  0.0000E+00  9.0000E+01  9.0000E+01  9.0000E+01  0.0000E+00  4.0237E-01
 ------------------------------------------------------------------------------------------------------------------------
   199400 -8.0008E+03  3.1396E+02 -1.0857E+04  2.6074E+03 -1.5247E+04  1.0868E+03  6.9513E+02  0.0000E+00  0.0000E+00
  99.700p -6.9683E+03  0.0000E+00  3.9954E+03 -5.6543E+04  1.6358E+04  4.4181E+04  0.0000E+00  0.0000E+00  0.0000E+00
  12.756m  8.0000E+03  0.0000E+00  0.0000E+00  0.0000E+00  9.0000E+01  9.0000E+01  9.0000E+01  0.0000E+00  1.5498E+00

  rolling -8.0007E+03  2.9618E+02 -1.0842E+04  2.6754E+03 -1.5369E+04  1.1501E+03  7.0169E+02  0.0000E+00  0.0000E+00
 averages -7.6694E+03  0.0000E+00  5.2568E+03 -5.7533E+04  1.6381E+04  4.6409E+04  0.0000E+00  0.0000E+00  0.0000E+00
           8.0000E+03  0.0000E+00  0.0000E+00  0.0000E+00  9.0000E+01  9.0000E+01  9.0000E+01  0.0000E+00  4.4612E-01
 ------------------------------------------------------------------------------------------------------------------------
 ------------------------------------------------------------------------------------------------------------------------

     step     eng_tot    temp_tot     eng_cfg     eng_vdw     eng_cou     eng_bnd     eng_ang     eng_dih     eng_tet
 time          eng_pv    temp_rot     vir_cfg     vir_vdw     vir_cou     vir_bnd     vir_ang     vir_con     vir_tet
 cpu time      volume    temp_shl     eng_shl     vir_shl       alpha        beta       gamma     vir_pmf       press

 ------------------------------------------------------------------------------------------------------------------------
   199500 -8.0005E+03  3.0610E+02 -1.0782E+04  2.7132E+03 -1.5403E+04  1.2437E+03  6.6471E+02  0.0000E+00  0.0000E+00
  99.750p -8.6636E+03  0.0000E+00  8.9170E+03 -5.7970E+04  1.6839E+04  5.0048E+04  0.0000E+00  0.0000E+00  0.0000E+00
  12.770m  8.0000E+03  0.0000E+00  0.0000E+00  0.0000E+00  9.0000E+01  9.0000E+01  9.0000E+01  0.0000E+00 -1.9179E+00

  rolling -8.0007E+03  2.9691E+02 -1.0847E+04  2.6814E+03 -1.5386E+04  1.1513E+03  7.0600E+02  0.0000E+00  0.0000E+00
 averages -7.6784E+03  0.0000E+00  5.3061E+03 -5.7606E+04  1.6435E+04  4.6477E+04  0.0000E+00  0.0000E+00  0.0000E+00
           8.0000E+03  0.0000E+00  0.0000E+00  0.0000E+00  9.0000E+01  9.0000E+01  9.0000E+01  0.0000E+00  4.2253E-01
 ------------------------------------------------------------------------------------------------------------------------
   199600 -8.0012E+03  3.0440E+02 -1.0806E+04  2.5937E+03 -1.5308E+04  1.1189E+03  7.8985E+02  0.0000E+00  0.0000E+00
  99.800p -7.5539E+03  0.0000E+00  5.4295E+03 -5.6446E+04  1.6714E+04  4.5161E+04  0.0000E+00  0.0000E+00  0.0000E+00
  12.783m  8.0000E+03  0.0000E+00  0.0000E+00  0.0000E+00  9.0000E+01  9.0000E+01  9.0000E+01  0.0000E+00  4.4025E-01

  rolling -8.0007E+03  2.9775E+02 -1.0848E+04  2.6901E+03 -1.5398E+04  1.1526E+03  7.0802E+02  0.0000E+00  0.0000E+00
 averages -7.6534E+03  0.0000E+00  5.2709E+03 -5.7711E+04  1.6504E+04  4.6478E+04  0.0000E+00  0.0000E+00  0.0000E+00
           8.0000E+03  0.0000E+00  0.0000E+00  0.0000E+00  9.0000E+01  9.0000E+01  9.0000E+01  0.0000E+00  4.5798E-01
 ------------------------------------------------------------------------------------------------------------------------
   199700 -8.0013E+03  3.0196E+02 -1.0833E+04  2.6422E+03 -1.5238E+04  1.0955E+03  6.6774E+02  0.0000E+00  0.0000E+00
  99.850p -7.3961E+03  0.0000E+00  4.7530E+03 -5.7111E+04  1.6340E+04  4.5524E+04  0.0000E+00  0.0000E+00  0.0000E+00
  12.796m  8.0000E+03  0.0000E+00  0.0000E+00  0.0000E+00  9.0000E+01  9.0000E+01  9.0000E+01  0.0000E+00  8.6890E-01

  rolling -8.0007E+03  2.9786E+02 -1.0839E+04  2.6813E+03 -1.5380E+04  1.1518E+03  7.0746E+02  0.0000E+00  0.0000E+00
 averages -7.6746E+03  0.0000E+00  5.3652E+03 -5.7591E+04  1.6546E+04  4.6410E+04  0.0000E+00  0.0000E+00  0.0000E+00
           8.0000E+03  0.0000E+00  0.0000E+00  0.0000E+00  9.0000E+01  9.0000E+01  9.0000E+01  0.0000E+00  3.9501E-01
 ------------------------------------------------------------------------------------------------------------------------
   199800 -8.0005E+03  3.0574E+02 -1.0908E+04  2.3869E+03 -1.5093E+04  1.1773E+03  6.2053E+02  0.0000E+00  0.0000E+00
  99.900p -8.9888E+03  0.0000E+00  9.4954E+03 -5.3748E+04  1.5851E+04  4.7392E+04  0.0000E+00  0.0000E+00  0.0000E+00
  12.809m  8.0000E+03  0.0000E+00  0.0000E+00  0.0000E+00  9.0000E+01  9.0000E+01  9.0000E+01  0.0000E+00 -2.3178E+00

  rolling -8.0007E+03  2.9811E+02 -1.0831E+04  2.6390E+03 -1.5323E+04  1.1497E+03  7.0299E+02  0.0000E+00  0.0000E+00
 averages -7.7871E+03  0.0000E+00  5.7396E+03 -5.7030E+04  1.6506E+04  4.6263E+04  0.0000E+00  0.0000E+00  0.0000E+00
           8.0000E+03  0.0000E+00  0.0000E+00  0.0000E+00  9.0000E+01  9.0000E+01  9.0000E+01  0.0000E+00  1.4282E-01
 ------------------------------------------------------------------------------------------------------------------------
   199900 -8.0006E+03  2.8660E+02 -1.0746E+04  2.4014E+03 -1.4952E+04  1.1256E+03  6.7896E+02  0.0000E+00  0.0000E+00
  99.950p -8.5761E+03  0.0000E+00  7.7870E+03 -5.3879E+04  1.5818E+04  4.5849E+04  0.0000E+00  0.0000E+00  0.0000E+00
  12.822m  8.0000E+03  0.0000E+00  0.0000E+00  0.0000E+00  9.0000E+01  9.0000E+01  9.0000E+01  0.0000E+00 -1.4120E+00

  rolling -8.0006E+03  2.9769E+02 -1.0817E+04  2.6015E+03 -1.5265E+04  1.1475E+03  6.9981E+02  0.0000E+00  0.0000E+00
 averages -7.8662E+03  0.0000E+00  5.9998E+03 -5.6519E+04  1.6422E+04  4.6097E+04  0.0000E+00  0.0000E+00  0.0000E+00
           8.0000E+03  0.0000E+00  0.0000E+00  0.0000E+00  9.0000E+01  9.0000E+01  9.0000E+01  0.0000E+00 -4.0555E-02
 ------------------------------------------------------------------------------------------------------------------------
   200000 -8.0006E+03  2.9422E+02 -1.0817E+04  2.2996E+03 -1.4888E+04  1.0978E+03  6.7366E+02  0.0000E+00  0.0000E+00
 100.000p -7.9646E+03  0.0000E+00  6.1217E+03 -5.2543E+04  1.5878E+04  4.2786E+04  0.0000E+00  0.0000E+00  0.0000E+00
  12.836m  8.0000E+03  0.0000E+00  0.0000E+00  0.0000E+00  9.0000E+01  9.0000E+01  9.0000E+01  0.0000E+00 -1.7119E-01

  rolling -8.0006E+03  2.9792E+02 -1.0807E+04  2.5715E+03 -1.5222E+04  1.1458E+03  6.9775E+02  0.0000E+00  0.0000E+00
 averages -7.9266E+03  0.0000E+00  6.2204E+03 -5.6116E+04  1.6371E+04  4.5965E+04  0.0000E+00  0.0000E+00  0.0000E+00
           8.0000E+03  0.0000E+00  0.0000E+00  0.0000E+00  9.0000E+01  9.0000E+01  9.0000E+01  0.0000E+00 -1.8809E-01
 ------------------------------------------------------------------------------------------------------------------------


 run terminating. elapsed cpu time =   7.70133E+02, job time = *******d, close time = 1000.00s



 run terminated after  200000 steps. final averages calculated over  200000 steps.


 ------------------------------------------------------------------------------------------------------------------------

     step     eng_tot    temp_tot     eng_cfg     eng_vdw     eng_cou     eng_bnd     eng_ang     eng_dih     eng_tet
 time          eng_pv    temp_rot     vir_cfg     vir_vdw     vir_cou     vir_bnd     vir_ang     vir_con     vir_tet
 cpu time      volume    temp_shl     eng_shl     vir_shl       alpha        beta       gamma     vir_pmf       press

 ------------------------------------------------------------------------------------------------------------------------
   200000 -8.0007E+03  2.9800E+02 -1.0887E+04  2.6024E+03 -1.5326E+04  1.1349E+03  7.0123E+02  0.0000E+00  0.0000E+00
 100.000p -7.9572E+03  0.0000E+00  6.0765E+03 -5.6564E+04  1.6290E+04  4.6350E+04  0.0000E+00  0.0000E+00  0.0000E+00
  12.837m  8.0000E+03  0.0000E+00  0.0000E+00  0.0000E+00  9.0000E+01  9.0000E+01  9.0000E+01  0.0000E+00 -8.8764E-02

  r.m.s.   1.0957E+00  8.6395E+00  1.2129E+02  1.2721E+02  2.1165E+02  6.1247E+01  5.2746E+01  0.0000E+00  0.0000E+00
 fluctn.   1.0085E+03  0.0000E+00  2.9779E+03  1.7074E+03  3.1058E+02  2.7846E+03  0.0000E+00  0.0000E+00  0.0000E+00
           5.5872E-11  0.0000E+00  0.0000E+00  0.0000E+00  2.1383E-13  2.1383E-13  2.1383E-13  0.0000E+00  2.0373E+00
 ------------------------------------------------------------------------------------------------------------------------


            Approximate 3D Diffusion  coefficients (10^-9 m^2 / s)

            atom        D 
            HW         1.9423E+00
            OW         1.9179E+00


                Average pressure tensor                                       r.m.s. fluctuations 

          -8.1603E-02  1.8856E-02 -1.1906E-02                          2.7334E+00  1.6314E+00  1.6092E+00
           1.8856E-02 -1.4356E-01  6.8526E-03                          1.6314E+00  2.7762E+00  1.5916E+00
          -1.1906E-02  6.8526E-03 -4.1127E-02                          1.6092E+00  1.5916E+00  2.7691E+00

            trace/3.  -8.8764E-02


 sample of final configuration

      i       x(i)        y(i)        z(i)       vx(i)       vy(i)       vz(i)       fx(i)       fy(i)       fz(i)


      1 -8.7687E+00  2.8750E+00 -7.8210E+00  4.7066E+00  1.9402E+01  2.9028E+00  2.1079E+02  5.5033E+03  7.3045E+03
     42  8.8884E+00 -7.1502E-01  4.7518E+00  2.8561E+01 -2.4826E+00 -6.9246E+00 -2.8538E+03 -2.3536E+03  8.0910E+02
     83 -4.0869E+00 -9.4965E+00 -1.2235E+00 -9.0404E+00 -1.6582E+00  1.7745E+00 -1.0479E+03 -1.5414E+04 -6.1479E+02
    124 -5.0659E+00 -2.3282E+00  5.1036E-01  2.7066E+01 -1.3573E+00 -6.4456E-02 -7.2941E+03  1.4134E+03 -1.5045E+04
    165  6.7210E+00 -6.4363E+00 -4.8288E+00  1.2339E+00 -2.0096E+00 -7.6254E+00 -3.0881E+03 -7.8047E+02 -1.1333E+04
    206 -1.2242E+00 -4.6420E+00 -4.3449E+00 -9.3691E+00  1.4607E+00 -2.3352E+00 -4.0163E+03 -1.0590E+04 -9.6206E+03
    247  8.1987E+00 -9.3691E+00 -9.6720E+00  5.8658E+00 -6.7017E+00  4.3134E+00 -9.6659E+03 -2.3740E+03 -3.6844E+03
    288  2.4871E+00 -4.3365E-01 -6.9866E+00  1.8562E+01 -1.0008E+01 -1.8043E+01 -1.1494E+03 -2.5176E+03 -3.7671E+03
    329  9.6864E-02 -7.9454E+00 -9.1143E+00  6.6429E+00 -1.1440E+00  3.7784E+00 -5.1245E+03 -1.4019E+04  6.7615E+03
    370  7.0539E+00 -5.6074E+00 -2.6917E+00  1.2917E+00 -2.4517E+01  1.5312E+01 -1.7295E+03  2.0867E+03 -3.5446E+03
    411  9.2265E+00 -5.2517E+00  2.2080E+00 -1.2922E+01  2.3126E+01  1.0069E+01 -3.2808E+03  9.5089E+02  2.5442E+03
    452  3.2812E+00 -6.7864E+00  4.8555E+00 -9.6238E-01  3.2829E+00  5.6732E-01 -1.7998E+04  2.7913E+03  9.9198E+03
    493  7.4796E-01 -8.1801E-01 -8.5956E+00  1.2353E+01 -1.9206E+00 -2.8770E+00  1.5535E+04  1.5829E+03  8.6504E+03
    534  4.8259E+00 -1.0471E+00 -8.3838E+00 -1.6635E+01 -1.8115E+00 -1.0138E+00 -2.2116E+03 -8.6827E+03 -1.9348E+03
    575 -6.9009E+00 -1.1876E+00  5.0556E+00  3.1548E+00 -1.7871E+00  6.6315E+00  1.3865E+04 -4.7056E+02 -6.1046E+03
    616  4.6627E+00  2.4676E+00 -8.8392E+00 -1.6536E+01 -9.0480E+00 -1.5329E-01  6.6677E+03  1.0740E+04 -9.1913E+03
    657  3.7933E+00 -3.2332E+00 -1.5141E+00 -1.4171E+00  1.0282E+01  1.6792E+01  2.9164E+03  4.3754E+03  9.5103E+03
    698  6.6565E+00 -9.7944E+00  9.1360E+00  2.1634E+00  5.6314E+00  2.2500E+00 -2.6765E+03  5.7551E+03 -4.9728E+02
    739  1.2034E+00 -9.8442E+00  5.5755E+00  1.9005E+00  4.9360E+00 -2.1795E+01  6.1183E+03  1.2020E+04 -6.5468E+03
    780  6.3498E+00 -3.1834E+00  7.6800E+00  1.3301E+01 -1.2407E+01  7.9187E+00  4.4563E+03  7.3603E+02  4.1581E+03

 time elapsed since job start =         770.222 seconds

