
                    DL_POLY Classic 1.9

                              Running on    1 nodes


 ************************************************************************************************************************
 ************************************************************************************************************************
 ************************************************************************************************************************
 ***************     DL_POLY CONTROL file                                                                 ***************
 ************************************************************************************************************************
 ************************************************************************************************************************
 ************************************************************************************************************************


 SIMULATION CONTROL PARAMETERS


 simulation temperature           3.0000E+02

 Nose-Hoover 
 thermostat relaxation time       1.0000E-01

 simulation timestep              1.0000E-99

 selected number of timesteps            1

 real space cut off               1.5000E+01

 real space cut off (vdw)         1.5000E+01

 border width of Verlet shell     5.0000E-01


 Electrostatics : Coulombic potential

 data printing interval                  1

 data stacking interval                  1

 statistics file interval                1

 user allocated job time (d)    ********

 job closure time        (s)    1000.000


SYSTEM SPECIFICATION

 energy units=kjoule/mol 


 number of molecular types               1

 molecular species type                  1


 name of species:             OH2                                     

 number of molecules                  1000

 number of atoms/sites                   3


 atomic characteristics:

                      site     name          mass        charge    repeat    freeze

                         1     OW          15.99900    -0.82000         1         0
                         2     HW           1.00800     0.41000         1         0
                         3     HW           1.00800     0.41000         1         0

 number of chemical bonds                2


 chemical bond details:

                            key     index     index                            parameters

                           harm         1         2     0.000000E+00   1.012000E+00   0.000000E+00   0.000000E+00
                           harm         1         3     0.000000E+00   1.012000E+00   0.000000E+00   0.000000E+00

 number of bond angles                   1


 bond angle details:

                            key     index     index     index     f-const       angle

                           harm         2         1         3  0.0000E+00  113.240000    0.000000    0.000000    0.000000    0.000000

 number of dihedral angles               0


 dihedral angle details:

                            key     index     index     index     index     f-const       angle        trig    1-4 elec     1-4 vdw



 number of specified pair potentials         3


                atom 1  atom 2      key                              parameters


                OW      OW        lj       0.00000E+00  0.00000E+00
                OW      HW        lj       0.00000E+00  0.00000E+00
                HW      HW        lj       0.00000E+00  0.00000E+00

 configuration file name: 

          Bulk                                                                            


 selected image convention               1


 simulation cell vectors


                        31.072329    0.000000    0.000000
                         0.000000   31.072329    0.000000
                         0.000000    0.000000   31.072329


 system volume            30000.0107400    


 total degrees of freedom                      8997.
 rotational degrees of freedom                    0.
 shell pseudo degrees of freedom                  0.


 sample of starting configuration

      i       x(i)        y(i)        z(i)       vx(i)       vy(i)       vz(i)


      1 -1.0976E+01 -9.9811E+00 -9.5263E+00  8.1205E+00 -1.8953E+00 -4.1246E+00
    151 -3.9061E-01 -7.6490E+00  2.2222E+00 -7.4287E+00  4.9326E-01  4.9645E-01
    301 -5.2153E+00 -1.1885E+01 -1.2390E+01  2.7180E+00 -2.3460E+00  6.2410E-01
    451  2.9739E+00 -4.9638E-01  4.6473E+00 -4.0407E+00 -2.0532E+00 -3.3643E+00
    601 -2.0197E-01 -2.1620E+00 -1.4160E+01  4.9384E+00  2.7073E+00  2.3805E+00
    751  4.8059E+00  2.5029E+00 -5.0065E+00 -5.1024E-01 -7.0939E-01  1.7928E-01
    901  1.1755E+01 -1.3368E+01  3.3767E+00 -6.0603E-01 -5.1658E+00  1.0790E+00
   1051  1.0354E+01  4.2332E+00 -6.0966E+00 -1.8807E+00  2.9253E+00 -3.3543E-01
   1201 -9.8602E+00  1.3876E+01  1.9256E+00 -1.2915E+00 -6.2636E+00  1.0317E-01
   1351  1.3334E+01 -4.5468E+00 -1.5446E+01 -3.3627E+00 -4.8564E+00  6.5945E+00
   1501 -1.3828E+01  1.3082E+01 -1.8666E+00  1.1452E+00 -4.8220E+00 -1.8825E+00
   1651  6.9145E-01  9.2228E+00  1.1668E+01  2.4508E+00 -5.5086E+00  4.2443E+00
   1801 -1.3597E+00  1.1006E+01  1.6517E+00 -6.5147E+00  1.7381E+00  1.5959E+00
   1951  1.1602E+01  2.4849E+00  8.5308E+00  2.5338E+00  5.1816E-01  1.2527E+00
   2101  2.8645E+00  8.5996E+00 -1.4891E+01  1.9374E+00 -6.4426E+00 -3.2404E+00
   2251  9.4267E+00 -9.1741E+00 -1.0662E+01  1.1007E+01 -2.0740E+00 -1.8946E+00
   2401 -1.2631E+01 -6.3659E+00  7.0691E+00 -8.9274E-01  1.1848E-01  5.4334E-01
   2551 -3.3566E+00 -8.4901E+00 -9.3216E+00  6.9621E+00 -3.7864E+00  3.2047E+00
   2701  1.3736E+01  3.2030E+00  1.9404E+00 -3.8534E+00 -3.2655E+00 -8.1879E-01
   2851  1.1632E+01  8.5246E-01  2.2181E+00  1.7607E+00 -1.5446E+00  4.7623E+00


long range correction for: vdw energy     0.000000E+00
                         : vdw pressure  -0.000000E+00

 time elapsed since job start =           0.009 seconds

 ------------------------------------------------------------------------------------------------------------------------

     step     eng_tot    temp_tot     eng_cfg     eng_vdw     eng_cou     eng_bnd     eng_ang     eng_dih     eng_tet
 time          eng_pv    temp_rot     vir_cfg     vir_vdw     vir_cou     vir_bnd     vir_ang     vir_con     vir_tet
 cpu time      volume    temp_shl     eng_shl     vir_shl       alpha        beta       gamma     vir_pmf       press

 ------------------------------------------------------------------------------------------------------------------------
        1 -2.2953E+04  3.0000E+02 -3.4174E+04  0.0000E+00 -3.4174E+04  0.0000E+00  0.0000E+00  0.0000E+00  0.0000E+00
   0.000f -2.6864E+04  0.0000E+00  3.4174E+04  0.0000E+00  3.4174E+04  0.0000E+00  0.0000E+00  0.0000E+00  0.0000E+00
   0.184s  3.0000E+04  0.0000E+00  0.0000E+00  0.0000E+00  9.0000E+01  9.0000E+01  9.0000E+01  0.0000E+00 -2.1363E+00

  rolling -2.2953E+04  3.0000E+02 -3.4174E+04  0.0000E+00 -3.4174E+04  0.0000E+00  0.0000E+00  0.0000E+00  0.0000E+00
 averages -2.6864E+04  0.0000E+00  3.4174E+04  0.0000E+00  3.4174E+04  0.0000E+00  0.0000E+00  0.0000E+00  0.0000E+00
           3.0000E+04  0.0000E+00  0.0000E+00  0.0000E+00  9.0000E+01  9.0000E+01  9.0000E+01  0.0000E+00 -2.1363E+00
 ------------------------------------------------------------------------------------------------------------------------


 run terminating. elapsed cpu time =   1.84000E-01, job time = *******d, close time = 1000.00s



 run terminated after       1 steps. final averages calculated over       1 steps.


 ------------------------------------------------------------------------------------------------------------------------

     step     eng_tot    temp_tot     eng_cfg     eng_vdw     eng_cou     eng_bnd     eng_ang     eng_dih     eng_tet
 time          eng_pv    temp_rot     vir_cfg     vir_vdw     vir_cou     vir_bnd     vir_ang     vir_con     vir_tet
 cpu time      volume    temp_shl     eng_shl     vir_shl       alpha        beta       gamma     vir_pmf       press

 ------------------------------------------------------------------------------------------------------------------------
        1 -2.2953E+04  3.0000E+02 -3.4174E+04  0.0000E+00 -3.4174E+04  0.0000E+00  0.0000E+00  0.0000E+00  0.0000E+00
   0.000f -2.6864E+04  0.0000E+00  3.4174E+04  0.0000E+00  3.4174E+04  0.0000E+00  0.0000E+00  0.0000E+00  0.0000E+00
   0.209s  3.0000E+04  0.0000E+00  0.0000E+00  0.0000E+00  9.0000E+01  9.0000E+01  9.0000E+01  0.0000E+00 -2.1363E+00

  r.m.s.   0.0000E+00  0.0000E+00  0.0000E+00  0.0000E+00  0.0000E+00  0.0000E+00  0.0000E+00  0.0000E+00  0.0000E+00
 fluctn.   0.0000E+00  0.0000E+00  0.0000E+00  0.0000E+00  0.0000E+00  0.0000E+00  0.0000E+00  0.0000E+00  0.0000E+00
           0.0000E+00  0.0000E+00  0.0000E+00  0.0000E+00  0.0000E+00  0.0000E+00  0.0000E+00  0.0000E+00  0.0000E+00
 ------------------------------------------------------------------------------------------------------------------------


            Approximate 3D Diffusion  coefficients (10^-9 m^2 / s)

            atom        D 
            OW         0.0000E+00
            HW         0.0000E+00


                Average pressure tensor                                       r.m.s. fluctuations 

          -1.9009E+00  6.3932E-01  1.2063E+00                          0.0000E+00  0.0000E+00  0.0000E+00
           6.3932E-01 -1.6311E+00 -7.6509E-01                          0.0000E+00  0.0000E+00  0.0000E+00
           1.2063E+00 -7.6509E-01 -2.8770E+00                          0.0000E+00  0.0000E+00  0.0000E+00

            trace/3.  -2.1363E+00


 sample of final configuration

      i       x(i)        y(i)        z(i)       vx(i)       vy(i)       vz(i)       fx(i)       fy(i)       fz(i)


      1 -1.0976E+01 -9.9811E+00 -9.5263E+00  8.1205E+00 -1.8953E+00 -4.1246E+00  7.8753E+03 -5.3630E+03 -1.6914E+03
    151 -3.9061E-01 -7.6490E+00  2.2222E+00 -7.4287E+00  4.9326E-01  4.9645E-01 -2.9431E+03 -6.9836E+03  3.9151E+03
    301 -5.2153E+00 -1.1885E+01 -1.2390E+01  2.7180E+00 -2.3460E+00  6.2410E-01  7.7614E+03 -6.2921E+03 -1.4942E+03
    451  2.9739E+00 -4.9638E-01  4.6473E+00 -4.0407E+00 -2.0532E+00 -3.3643E+00  8.6791E+03 -7.2715E+03 -2.2231E+03
    601 -2.0197E-01 -2.1620E+00 -1.4160E+01  4.9384E+00  2.7073E+00  2.3805E+00 -2.4270E+03 -5.8763E+03  6.3383E+03
    751  4.8059E+00  2.5029E+00 -5.0065E+00 -5.1024E-01 -7.0939E-01  1.7928E-01 -3.9485E+03  3.6538E+03 -5.5823E+03
    901  1.1755E+01 -1.3368E+01  3.3767E+00 -6.0603E-01 -5.1658E+00  1.0790E+00  9.0026E+03 -4.1479E+03  4.9972E+03
   1051  1.0354E+01  4.2332E+00 -6.0966E+00 -1.8807E+00  2.9253E+00 -3.3543E-01 -5.5901E+03  6.7383E+03 -5.7145E+03
   1201 -9.8602E+00  1.3876E+01  1.9256E+00 -1.2915E+00 -6.2636E+00  1.0317E-01 -5.2899E+03  5.5426E+03  9.0448E+03
   1351  1.3334E+01 -4.5468E+00 -1.5446E+01 -3.3627E+00 -4.8564E+00  6.5945E+00 -7.1446E+01  2.5818E+03 -2.0625E+03
   1501 -1.3828E+01  1.3082E+01 -1.8666E+00  1.1452E+00 -4.8220E+00 -1.8825E+00 -6.5934E+02 -9.9141E+03 -4.5858E+03
   1651  6.9145E-01  9.2228E+00  1.1668E+01  2.4508E+00 -5.5086E+00  4.2443E+00 -3.7349E+01 -2.4094E+03  4.0683E+03
   1801 -1.3597E+00  1.1006E+01  1.6517E+00 -6.5147E+00  1.7381E+00  1.5959E+00  2.3950E+01  4.3706E+03  5.0646E+03
   1951  1.1602E+01  2.4849E+00  8.5308E+00  2.5338E+00  5.1816E-01  1.2527E+00  1.9283E+03 -7.4926E+03 -4.2387E+03
   2101  2.8645E+00  8.5996E+00 -1.4891E+01  1.9374E+00 -6.4426E+00 -3.2404E+00  5.2401E+03  1.4673E+03  6.2755E+03
   2251  9.4267E+00 -9.1741E+00 -1.0662E+01  1.1007E+01 -2.0740E+00 -1.8946E+00  5.5473E+03  4.8083E+03  6.8453E+03
   2401 -1.2631E+01 -6.3659E+00  7.0691E+00 -8.9274E-01  1.1848E-01  5.4334E-01  1.8555E+02 -3.1613E+03 -8.3532E+03
   2551 -3.3566E+00 -8.4901E+00 -9.3216E+00  6.9621E+00 -3.7864E+00  3.2047E+00 -7.5574E+03  3.3094E+03 -6.4560E+02
   2701  1.3736E+01  3.2030E+00  1.9404E+00 -3.8534E+00 -3.2655E+00 -8.1879E-01 -1.3060E+03 -2.8528E+03  3.6055E+03
   2851  1.1632E+01  8.5246E-01  2.2181E+00  1.7607E+00 -1.5446E+00  4.7623E+00 -9.4865E+03  6.3659E+02 -8.9804E+03

 time elapsed since job start =           0.209 seconds

