
                    DL_POLY Classic 1.9

                              Running on    1 nodes


 ************************************************************************************************************************
 ************************************************************************************************************************
 ************************************************************************************************************************
 ***************     DL_POLY CONTROL file                                                                 ***************
 ************************************************************************************************************************
 ************************************************************************************************************************
 ************************************************************************************************************************


 SIMULATION CONTROL PARAMETERS


 simulation temperature           2.9800E+02

 Nose-Hoover 
 thermostat relaxation time       1.0000E-01

 simulation timestep              5.0000E-04

 selected number of timesteps       400000

 restart requested

 real space cut off               1.2000E+01

 real space cut off (vdw)         1.2000E+01

 border width of Verlet shell     5.0000E-01


 Electrostatics : Shifted Coulombic potential

 trajectory file option on  
 trajectory file start                   1
 trajectory file interval             1000
 trajectory file info key                0

 data printing interval                100

 data stacking interval               1000

 statistics file interval             1000

 user allocated job time (d)    ********

 job closure time        (s)    1000.000


SYSTEM SPECIFICATION

 energy units=kjoule/mol 


 number of molecular types               1

 molecular species type                  1


 name of species:             C6H6                                    

 number of molecules                   181

 number of atoms/sites                  12


 atomic characteristics:

                      site     name          mass        charge    repeat    freeze

                         1     CA          12.01100    -0.11500         1         0
                         2     HA           1.00800     0.11500         1         0
                         3     CA          12.01100    -0.11500         1         0
                         4     HA           1.00800     0.11500         1         0
                         5     CA          12.01100    -0.11500         1         0
                         6     HA           1.00800     0.11500         1         0
                         7     CA          12.01100    -0.11500         1         0
                         8     HA           1.00800     0.11500         1         0
                         9     CA          12.01100    -0.11500         1         0
                        10     HA           1.00800     0.11500         1         0
                        11     CA          12.01100    -0.11500         1         0
                        12     HA           1.00800     0.11500         1         0

 number of chemical bonds               12


 chemical bond details:

                            key     index     index                            parameters

                           harm         1         2     3.071056E+03   1.080000E+00   0.000000E+00   0.000000E+00
                           harm         1         3     3.924592E+03   1.400000E+00   0.000000E+00   0.000000E+00
                           harm         1        11     3.924592E+03   1.400000E+00   0.000000E+00   0.000000E+00
                           harm         3         4     3.071056E+03   1.080000E+00   0.000000E+00   0.000000E+00
                           harm         3         5     3.924592E+03   1.400000E+00   0.000000E+00   0.000000E+00
                           harm         5         6     3.071056E+03   1.080000E+00   0.000000E+00   0.000000E+00
                           harm         5         7     3.924592E+03   1.400000E+00   0.000000E+00   0.000000E+00
                           harm         7         8     3.071056E+03   1.080000E+00   0.000000E+00   0.000000E+00
                           harm         7         9     3.924592E+03   1.400000E+00   0.000000E+00   0.000000E+00
                           harm         9        10     3.071056E+03   1.080000E+00   0.000000E+00   0.000000E+00
                           harm         9        11     3.924592E+03   1.400000E+00   0.000000E+00   0.000000E+00
                           harm        11        12     3.071056E+03   1.080000E+00   0.000000E+00   0.000000E+00

 number of bond angles                  18


 bond angle details:

                            key     index     index     index     f-const       angle

                           harm         2         1         3  2.9288E+02  120.000000    0.000000    0.000000    0.000000    0.000000
                           harm         2         1        11  2.9288E+02  120.000000    0.000000    0.000000    0.000000    0.000000
                           harm         3         1        11  5.2718E+02  120.000000    0.000000    0.000000    0.000000    0.000000
                           harm         1         3         4  2.9288E+02  120.000000    0.000000    0.000000    0.000000    0.000000
                           harm         1         3         5  5.2718E+02  120.000000    0.000000    0.000000    0.000000    0.000000
                           harm         4         3         5  2.9288E+02  120.000000    0.000000    0.000000    0.000000    0.000000
                           harm         3         5         6  2.9288E+02  120.000000    0.000000    0.000000    0.000000    0.000000
                           harm         3         5         7  5.2718E+02  120.000000    0.000000    0.000000    0.000000    0.000000
                           harm         6         5         7  2.9288E+02  120.000000    0.000000    0.000000    0.000000    0.000000
                           harm         5         7         8  2.9288E+02  120.000000    0.000000    0.000000    0.000000    0.000000
                           harm         5         7         9  5.2718E+02  120.000000    0.000000    0.000000    0.000000    0.000000
                           harm         8         7         9  2.9288E+02  120.000000    0.000000    0.000000    0.000000    0.000000
                           harm         7         9        10  2.9288E+02  120.000000    0.000000    0.000000    0.000000    0.000000
                           harm         7         9        11  5.2718E+02  120.000000    0.000000    0.000000    0.000000    0.000000
                           harm        10         9        11  2.9288E+02  120.000000    0.000000    0.000000    0.000000    0.000000
                           harm         1        11         9  5.2718E+02  120.000000    0.000000    0.000000    0.000000    0.000000
                           harm         1        11        12  2.9288E+02  120.000000    0.000000    0.000000    0.000000    0.000000
                           harm         9        11        12  2.9288E+02  120.000000    0.000000    0.000000    0.000000    0.000000

 number of dihedral angles              24


 dihedral angle details:

                            key     index     index     index     index     f-const       angle        trig    1-4 elec     1-4 vdw

                           cos3         2         1         3         4  0.0000E+00   30.334000    0.000000    0.500000    0.500000
                           cos3         2         1         3         5  0.0000E+00   30.334000    0.000000    0.500000    0.500000
                           cos3        11         1         3         4  0.0000E+00   30.334000    0.000000    0.500000    0.500000
                           cos3        11         1         3         5  0.0000E+00   30.334000    0.000000    0.500000    0.500000
                           cos3         2         1        11         9  0.0000E+00   30.334000    0.000000    0.500000    0.500000
                           cos3         2         1        11        12  0.0000E+00   30.334000    0.000000    0.500000    0.500000
                           cos3         3         1        11         9  0.0000E+00   30.334000    0.000000    0.500000    0.500000
                           cos3         3         1        11        12  0.0000E+00   30.334000    0.000000    0.500000    0.500000
                           cos3         1         3         5         6  0.0000E+00   30.334000    0.000000    0.500000    0.500000
                           cos3         1         3         5         7  0.0000E+00   30.334000    0.000000    0.500000    0.500000
                           cos3         4         3         5         6  0.0000E+00   30.334000    0.000000    0.500000    0.500000
                           cos3         4         3         5         7  0.0000E+00   30.334000    0.000000    0.500000    0.500000
                           cos3         3         5         7         8  0.0000E+00   30.334000    0.000000    0.500000    0.500000
                           cos3         3         5         7         9  0.0000E+00   30.334000    0.000000    0.500000    0.500000
                           cos3         6         5         7         8  0.0000E+00   30.334000    0.000000    0.500000    0.500000
                           cos3         6         5         7         9  0.0000E+00   30.334000    0.000000    0.500000    0.500000
                           cos3         5         7         9        10  0.0000E+00   30.334000    0.000000    0.500000    0.500000
                           cos3         5         7         9        11  0.0000E+00   30.334000    0.000000    0.500000    0.500000
                           cos3         8         7         9        10  0.0000E+00   30.334000    0.000000    0.500000    0.500000
                           cos3         8         7         9        11  0.0000E+00   30.334000    0.000000    0.500000    0.500000
                           cos3         7         9        11         1  0.0000E+00   30.334000    0.000000    0.500000    0.500000
                           cos3         7         9        11        12  0.0000E+00   30.334000    0.000000    0.500000    0.500000
                           cos3        10         9        11         1  0.0000E+00   30.334000    0.000000    0.500000    0.500000
                           cos3        10         9        11        12  0.0000E+00   30.334000    0.000000    0.500000    0.500000


 number of specified pair potentials         3


                atom 1  atom 2      key                              parameters


                CA      CA        lj       2.92880E-01  3.55000E+00
                CA      HA        lj       1.91735E-01  2.93104E+00
                HA      HA        lj       1.25520E-01  2.42000E+00

 configuration file name: 

          Disorder Model                                                                  


 selected image convention               1


 simulation cell vectors


                        29.925090    0.000000    0.000000
                         0.000000   29.925090    0.000000
                         0.000000    0.000000   29.925090


 system volume            26798.2474300    

  *** warning - : 1..4 scale factors reset for mole    1     sites          3         9

  *** warning - : 1..4 scale factors reset for mole    1     sites          5        11

  *** warning - : 1..4 scale factors reset for mole    1     sites          7         1


 total degrees of freedom                      6513.
 rotational degrees of freedom                    0.
 shell pseudo degrees of freedom                  0.


 sample of starting configuration

      i       x(i)        y(i)        z(i)       vx(i)       vy(i)       vz(i)       fx(i)       fy(i)       fz(i)


      1  9.9443E+00  1.3622E+01 -6.4585E+00  9.9370E+00  3.8944E+00  5.1977E+00 -1.5218E+03  5.5780E+03 -6.3348E+03
    110 -1.3173E+01  5.4372E+00 -1.1747E+01  1.5661E+00  8.8742E+00  2.8591E+01  3.7415E+03  1.7890E+03 -1.1581E+01
    219 -4.2206E+00 -1.3812E+01 -8.5995E+00  6.3598E+00  7.1980E-01  1.0161E+00  7.1828E+03 -2.3089E+04 -1.7624E+03
    328 -5.5143E+00 -7.6332E+00 -8.5263E+00  1.1281E+01  2.4553E+01  7.0497E+00  4.9785E+03 -4.9283E+03 -7.5575E+03
    437 -1.0963E+01  8.4281E+00  1.2696E+00 -3.9318E+00  7.5890E+00  6.1401E+00 -7.3572E+03 -4.1674E+03 -1.5245E+04
    546 -4.4830E+00  1.4575E+01 -1.1030E+01 -3.8785E+00 -1.6056E+01 -1.0479E+00 -4.0755E+03  5.7037E+02 -3.0360E+03
    655  1.0773E+01  1.4835E+01 -1.1436E+01 -1.9008E+00  2.8198E+00 -1.9093E+00 -1.4157E+03  2.5729E+04  4.0148E+03
    764  9.6974E+00  3.5020E+00 -1.1305E+00 -7.9800E+00  1.4106E+01  4.0635E+01 -1.0432E+03  1.6158E+04  9.9030E+02
    873  8.5664E+00 -6.2466E+00  1.1498E+01  7.8030E-01  3.0315E+00 -1.5573E+01 -5.5342E+03  2.6549E+04  1.0975E+04
    982 -1.9235E+00  5.7123E+00  1.1689E+01  1.3535E+01 -5.7986E+00  1.1677E+01 -4.6416E+03  1.3837E+03 -6.6668E+03
   1091  9.7518E+00  7.6085E-01  9.7952E+00 -1.2814E-01  5.5105E+00 -4.8131E+00 -9.8531E+03  4.1077E+03  8.3867E+03
   1200  1.1684E+01 -2.0885E+00 -1.4651E+01  2.0075E+00  3.4117E+00 -1.8827E+01 -3.4327E+03 -6.8154E+02 -3.9996E+03
   1309 -5.1440E+00 -7.9673E+00 -4.2994E+00  4.2497E+00  2.6187E+00  2.8527E+00 -5.2714E+03  4.4050E+03 -1.3518E+04
   1418  2.7479E+00  6.3596E+00  1.1444E+01  2.9190E+01 -9.6812E+00 -7.2492E+00 -1.2902E+03  9.3438E+03  6.0798E+03
   1527 -5.8097E+00 -1.3087E+01 -1.3713E+01 -5.2355E+00  2.4307E+00  2.4081E+00 -9.6497E+03 -3.7002E+02  2.5935E+04
   1636  1.4163E+01  8.3144E+00 -6.3667E+00 -9.0370E+00 -6.6323E+00  1.0336E+00  6.5661E+03  3.5045E+03 -1.8588E+03
   1745  8.7011E+00  9.5572E+00  2.8305E+00  2.6122E+00 -1.6892E+00  3.3568E+00 -1.1563E+04  7.1693E+03 -1.0979E+03
   1854  1.1247E+01 -1.2575E+01 -4.6799E+00 -1.9966E+01 -5.4084E+00 -1.8119E+01 -2.3030E+02  2.6236E+03  4.6026E+02
   1963 -1.4314E+01 -2.9481E+00 -4.8159E+00  2.2415E+00  2.7362E+00 -4.2234E+00  1.4385E+04  4.2522E+03 -9.2843E+03
   2072  1.1871E+01  9.1332E+00  1.4351E+01  1.6837E+01  1.8958E+01  2.3689E+00  3.7356E+03 -8.6808E+02 -3.2429E+03


long range correction for: vdw energy    -0.182307E+03
                         : vdw pressure  -0.222938E+00

 time elapsed since job start =           0.015 seconds

 ------------------------------------------------------------------------------------------------------------------------

     step     eng_tot    temp_tot     eng_cfg     eng_vdw     eng_cou     eng_bnd     eng_ang     eng_dih     eng_tet
 time          eng_pv    temp_rot     vir_cfg     vir_vdw     vir_cou     vir_bnd     vir_ang     vir_con     vir_tet
 cpu time      volume    temp_shl     eng_shl     vir_shl       alpha        beta       gamma     vir_pmf       press

 ------------------------------------------------------------------------------------------------------------------------
   200100  7.2152E+03  3.0242E+02  4.9335E+03 -1.4010E+03  5.7025E+02  2.2369E+03  1.6224E+03  1.9050E+03  0.0000E+00
 100.050p  1.6521E+04  0.0000E+00  6.1783E+03 -5.1306E+04 -9.2176E+02  5.8406E+04  0.0000E+00  0.0000E+00  0.0000E+00
   5.164s  2.6798E+04  0.0000E+00  0.0000E+00  0.0000E+00  9.0000E+01  9.0000E+01  9.0000E+01  0.0000E+00  2.0789E+00

  rolling  7.1842E+03  2.9749E+02  5.0957E+03 -1.3530E+03  5.5892E+02  2.3578E+03  1.6840E+03  1.8479E+03  0.0000E+00
 averages  1.6858E+04  0.0000E+00  4.9870E+03 -5.2218E+04 -9.3736E+02  5.8142E+04  0.0000E+00  0.0000E+00  0.0000E+00
           2.6798E+04  0.0000E+00  0.0000E+00  0.0000E+00  9.0000E+01  9.0000E+01  9.0000E+01  0.0000E+00  2.2674E+00
 ------------------------------------------------------------------------------------------------------------------------
   200200  7.2166E+03  2.9746E+02  5.0509E+03 -1.3113E+03  5.6685E+02  2.3215E+03  1.6788E+03  1.7950E+03  0.0000E+00
 100.100p  1.8073E+04  0.0000E+00  1.2029E+03 -5.2593E+04 -9.2922E+02  5.4725E+04  0.0000E+00  0.0000E+00  0.0000E+00
  10.252s  2.6798E+04  0.0000E+00  0.0000E+00  0.0000E+00  9.0000E+01  9.0000E+01  9.0000E+01  0.0000E+00  3.0384E+00

  rolling  7.1880E+03  2.9721E+02  5.0975E+03 -1.3527E+03  5.5868E+02  2.3611E+03  1.6775E+03  1.8529E+03  0.0000E+00
 averages  1.6847E+04  0.0000E+00  4.9886E+03 -5.2194E+04 -9.3402E+02  5.8116E+04  0.0000E+00  0.0000E+00  0.0000E+00
           2.6798E+04  0.0000E+00  0.0000E+00  0.0000E+00  9.0000E+01  9.0000E+01  9.0000E+01  0.0000E+00  2.2639E+00
 ------------------------------------------------------------------------------------------------------------------------
   200300  7.2199E+03  2.9707E+02  5.0816E+03 -1.3595E+03  5.5417E+02  2.3805E+03  1.6370E+03  1.8694E+03  0.0000E+00
 100.150p  1.6332E+04  0.0000E+00  6.4664E+03 -5.1897E+04 -9.3408E+02  5.9297E+04  0.0000E+00  0.0000E+00  0.0000E+00
  15.332s  2.6798E+04  0.0000E+00  0.0000E+00  0.0000E+00  9.0000E+01  9.0000E+01  9.0000E+01  0.0000E+00  1.9611E+00

  rolling  7.1918E+03  2.9701E+02  5.0975E+03 -1.3554E+03  5.5824E+02  2.3613E+03  1.6760E+03  1.8574E+03  0.0000E+00
 averages  1.6887E+04  0.0000E+00  4.8410E+03 -5.2128E+04 -9.3115E+02  5.7900E+04  0.0000E+00  0.0000E+00  0.0000E+00
           2.6798E+04  0.0000E+00  0.0000E+00  0.0000E+00  9.0000E+01  9.0000E+01  9.0000E+01  0.0000E+00  2.2919E+00
 ------------------------------------------------------------------------------------------------------------------------
   200400  7.2188E+03  2.9518E+02  5.1484E+03 -1.3784E+03  5.5510E+02  2.4058E+03  1.7403E+03  1.8256E+03  0.0000E+00
 100.200p  1.5119E+04  0.0000E+00  1.0052E+04 -5.1906E+04 -9.3347E+02  6.2891E+04  0.0000E+00  0.0000E+00  0.0000E+00
  20.452s  2.6798E+04  0.0000E+00  0.0000E+00  0.0000E+00  9.0000E+01  9.0000E+01  9.0000E+01  0.0000E+00  1.2095E+00

  rolling  7.1955E+03  2.9707E+02  5.0931E+03 -1.3618E+03  5.5789E+02  2.3637E+03  1.6750E+03  1.8583E+03  0.0000E+00
 averages  1.6675E+04  0.0000E+00  5.4725E+03 -5.2026E+04 -9.3020E+02  5.8429E+04  0.0000E+00  0.0000E+00  0.0000E+00
           2.6798E+04  0.0000E+00  0.0000E+00  0.0000E+00  9.0000E+01  9.0000E+01  9.0000E+01  0.0000E+00  2.1637E+00
 ------------------------------------------------------------------------------------------------------------------------
   200500  7.2159E+03  2.9851E+02  5.0892E+03 -1.3457E+03  5.7088E+02  2.2366E+03  1.7124E+03  1.9151E+03  0.0000E+00
 100.250p  1.9072E+04  0.0000E+00 -1.5359E+03 -5.2337E+04 -9.2575E+02  5.1726E+04  0.0000E+00  0.0000E+00  0.0000E+00
  25.570s  2.6798E+04  0.0000E+00  0.0000E+00  0.0000E+00  9.0000E+01  9.0000E+01  9.0000E+01  0.0000E+00  3.6083E+00

  rolling  7.1993E+03  2.9689E+02  5.0977E+03 -1.3601E+03  5.5969E+02  2.3687E+03  1.6741E+03  1.8552E+03  0.0000E+00
 averages  1.6575E+04  0.0000E+00  5.7604E+03 -5.2051E+04 -9.2970E+02  5.8741E+04  0.0000E+00  0.0000E+00  0.0000E+00
           2.6798E+04  0.0000E+00  0.0000E+00  0.0000E+00  9.0000E+01  9.0000E+01  9.0000E+01  0.0000E+00  2.1031E+00
 ------------------------------------------------------------------------------------------------------------------------
   200600  7.2174E+03  2.9876E+02  5.1277E+03 -1.4056E+03  5.9761E+02  2.3963E+03  1.6397E+03  1.8996E+03  0.0000E+00
 100.300p  1.3904E+04  0.0000E+00  1.4117E+04 -5.1582E+04 -9.6057E+02  6.6659E+04  0.0000E+00  0.0000E+00  0.0000E+00
  30.618s  2.6798E+04  0.0000E+00  0.0000E+00  0.0000E+00  9.0000E+01  9.0000E+01  9.0000E+01  0.0000E+00  4.2026E-01

  rolling  7.2030E+03  2.9707E+02  5.0974E+03 -1.3593E+03  5.6271E+02  2.3674E+03  1.6766E+03  1.8500E+03  0.0000E+00
 averages  1.6495E+04  0.0000E+00  6.0262E+03 -5.2067E+04 -9.3077E+02  5.9024E+04  0.0000E+00  0.0000E+00  0.0000E+00
           2.6798E+04  0.0000E+00  0.0000E+00  0.0000E+00  9.0000E+01  9.0000E+01  9.0000E+01  0.0000E+00  2.0509E+00
 ------------------------------------------------------------------------------------------------------------------------
   200700  7.2187E+03  2.9826E+02  5.1752E+03 -1.2891E+03  5.8715E+02  2.3328E+03  1.6481E+03  1.8962E+03  0.0000E+00
 100.350p  2.0182E+04  0.0000E+00 -4.6406E+03 -5.3292E+04 -9.8488E+02  4.9636E+04  0.0000E+00  0.0000E+00  0.0000E+00
  35.729s  2.6798E+04  0.0000E+00  0.0000E+00  0.0000E+00  9.0000E+01  9.0000E+01  9.0000E+01  0.0000E+00  4.2384E+00

  rolling  7.2068E+03  2.9727E+02  5.1009E+03 -1.3563E+03  5.6621E+02  2.3581E+03  1.6780E+03  1.8549E+03  0.0000E+00
 averages  1.6584E+04  0.0000E+00  5.7945E+03 -5.2126E+04 -9.3485E+02  5.8855E+04  0.0000E+00  0.0000E+00  0.0000E+00
           2.6798E+04  0.0000E+00  0.0000E+00  0.0000E+00  9.0000E+01  9.0000E+01  9.0000E+01  0.0000E+00  2.1003E+00
 ------------------------------------------------------------------------------------------------------------------------
   200800  7.2192E+03  2.9826E+02  5.2072E+03 -1.4066E+03  5.8537E+02  2.3699E+03  1.7302E+03  1.9283E+03  0.0000E+00
 100.400p  1.5815E+04  0.0000E+00  8.5561E+03 -5.1851E+04 -9.7827E+02  6.1385E+04  0.0000E+00  0.0000E+00  0.0000E+00
  40.913s  2.6798E+04  0.0000E+00  0.0000E+00  0.0000E+00  9.0000E+01  9.0000E+01  9.0000E+01  0.0000E+00  1.5483E+00

  rolling  7.2105E+03  2.9734E+02  5.1116E+03 -1.3514E+03  5.6890E+02  2.3541E+03  1.6791E+03  1.8608E+03  0.0000E+00
 averages  1.6791E+04  0.0000E+00  5.2173E+03 -5.2227E+04 -9.4026E+02  5.8384E+04  0.0000E+00  0.0000E+00  0.0000E+00
           2.6798E+04  0.0000E+00  0.0000E+00  0.0000E+00  9.0000E+01  9.0000E+01  9.0000E+01  0.0000E+00  2.2187E+00
 ------------------------------------------------------------------------------------------------------------------------
 ------------------------------------------------------------------------------------------------------------------------

     step     eng_tot    temp_tot     eng_cfg     eng_vdw     eng_cou     eng_bnd     eng_ang     eng_dih     eng_tet
 time          eng_pv    temp_rot     vir_cfg     vir_vdw     vir_cou     vir_bnd     vir_ang     vir_con     vir_tet
 cpu time      volume    temp_shl     eng_shl     vir_shl       alpha        beta       gamma     vir_pmf       press

 ------------------------------------------------------------------------------------------------------------------------
   200900  7.2182E+03  2.9596E+02  5.2845E+03 -1.2881E+03  5.9257E+02  2.2730E+03  1.7294E+03  1.9775E+03  0.0000E+00
 100.450p  1.7810E+04  0.0000E+00  2.4896E+03 -5.3262E+04 -9.7559E+02  5.6727E+04  0.0000E+00  0.0000E+00  0.0000E+00
  46.030s  2.6798E+04  0.0000E+00  0.0000E+00  0.0000E+00  9.0000E+01  9.0000E+01  9.0000E+01  0.0000E+00  2.7596E+00

  rolling  7.2143E+03  2.9747E+02  5.1233E+03 -1.3472E+03  5.7158E+02  2.3539E+03  1.6772E+03  1.8678E+03  0.0000E+00
 averages  1.6944E+04  0.0000E+00  4.8103E+03 -5.2309E+04 -9.4481E+02  5.8064E+04  0.0000E+00  0.0000E+00  0.0000E+00
           2.6798E+04  0.0000E+00  0.0000E+00  0.0000E+00  9.0000E+01  9.0000E+01  9.0000E+01  0.0000E+00  2.3032E+00
 ------------------------------------------------------------------------------------------------------------------------
   201000  7.2181E+03  2.9761E+02  5.2607E+03 -1.3448E+03  5.7310E+02  2.3982E+03  1.6718E+03  1.9624E+03  0.0000E+00
 100.500p  1.7915E+04  0.0000E+00  2.3290E+03 -5.2694E+04 -9.5919E+02  5.5982E+04  0.0000E+00  0.0000E+00  0.0000E+00
  51.103s  2.6798E+04  0.0000E+00  0.0000E+00  0.0000E+00  9.0000E+01  9.0000E+01  9.0000E+01  0.0000E+00  2.8105E+00

  rolling  7.2181E+03  2.9754E+02  5.1393E+03 -1.3435E+03  5.7389E+02  2.3576E+03  1.6770E+03  1.8744E+03  0.0000E+00
 averages  1.7086E+04  0.0000E+00  4.4405E+03 -5.2387E+04 -9.4848E+02  5.7776E+04  0.0000E+00  0.0000E+00  0.0000E+00
           2.6798E+04  0.0000E+00  0.0000E+00  0.0000E+00  9.0000E+01  9.0000E+01  9.0000E+01  0.0000E+00  2.3793E+00
 ------------------------------------------------------------------------------------------------------------------------
   201100  7.2184E+03  2.9648E+02  5.3099E+03 -1.2140E+03  5.6429E+02  2.4356E+03  1.7073E+03  1.8167E+03  0.0000E+00
 100.550p  1.8432E+04  0.0000E+00  7.7094E+02 -5.4838E+04 -9.4419E+02  5.6553E+04  0.0000E+00  0.0000E+00  0.0000E+00
  56.294s  2.6798E+04  0.0000E+00  0.0000E+00  0.0000E+00  9.0000E+01  9.0000E+01  9.0000E+01  0.0000E+00  3.1156E+00

  rolling  7.2181E+03  2.9756E+02  5.1570E+03 -1.3384E+03  5.7375E+02  2.3609E+03  1.6756E+03  1.8851E+03  0.0000E+00
 averages  1.7086E+04  0.0000E+00  4.4976E+03 -5.2523E+04 -9.5090E+02  5.7971E+04  0.0000E+00  0.0000E+00  0.0000E+00
           2.6798E+04  0.0000E+00  0.0000E+00  0.0000E+00  9.0000E+01  9.0000E+01  9.0000E+01  0.0000E+00  2.3679E+00
 ------------------------------------------------------------------------------------------------------------------------
   201200  7.2189E+03  2.9789E+02  5.2963E+03 -1.2369E+03  5.6332E+02  2.4014E+03  1.6944E+03  1.8741E+03  0.0000E+00
 100.600p  1.7756E+04  0.0000E+00  2.9478E+03 -5.4558E+04 -9.5128E+02  5.8457E+04  0.0000E+00  0.0000E+00  0.0000E+00
   1.024m  2.6798E+04  0.0000E+00  0.0000E+00  0.0000E+00  9.0000E+01  9.0000E+01  9.0000E+01  0.0000E+00  2.6874E+00

  rolling  7.2181E+03  2.9786E+02  5.1725E+03 -1.3286E+03  5.7299E+02  2.3626E+03  1.6747E+03  1.8910E+03  0.0000E+00
 averages  1.7285E+04  0.0000E+00  3.9887E+03 -5.2754E+04 -9.5287E+02  5.7695E+04  0.0000E+00  0.0000E+00  0.0000E+00
           2.6798E+04  0.0000E+00  0.0000E+00  0.0000E+00  9.0000E+01  9.0000E+01  9.0000E+01  0.0000E+00  2.4749E+00
 ------------------------------------------------------------------------------------------------------------------------
   201300  7.2177E+03  2.9635E+02  5.3535E+03 -1.2871E+03  5.6285E+02  2.4188E+03  1.7120E+03  1.9469E+03  0.0000E+00
 100.650p  1.8156E+04  0.0000E+00  1.7131E+03 -5.3884E+04 -9.2160E+02  5.6518E+04  0.0000E+00  0.0000E+00  0.0000E+00
   1.111m  2.6798E+04  0.0000E+00  0.0000E+00  0.0000E+00  9.0000E+01  9.0000E+01  9.0000E+01  0.0000E+00  2.9222E+00

  rolling  7.2181E+03  2.9807E+02  5.1926E+03 -1.3207E+03  5.7251E+02  2.3671E+03  1.6750E+03  1.8987E+03  0.0000E+00
 averages  1.7371E+04  0.0000E+00  3.8173E+03 -5.2962E+04 -9.5306E+02  5.7733E+04  0.0000E+00  0.0000E+00  0.0000E+00
           2.6798E+04  0.0000E+00  0.0000E+00  0.0000E+00  9.0000E+01  9.0000E+01  9.0000E+01  0.0000E+00  2.5122E+00
 ------------------------------------------------------------------------------------------------------------------------
   201400  7.2183E+03  2.9836E+02  5.3030E+03 -1.2985E+03  5.6421E+02  2.3746E+03  1.7006E+03  1.9620E+03  0.0000E+00
 100.700p  1.9083E+04  0.0000E+00 -9.4828E+02 -5.3442E+04 -9.1891E+02  5.3412E+04  0.0000E+00  0.0000E+00  0.0000E+00
   1.196m  2.6798E+04  0.0000E+00  0.0000E+00  0.0000E+00  9.0000E+01  9.0000E+01  9.0000E+01  0.0000E+00  3.4869E+00

  rolling  7.2182E+03  2.9816E+02  5.2151E+03 -1.3086E+03  5.7297E+02  2.3668E+03  1.6789E+03  1.9051E+03  0.0000E+00
 averages  1.7605E+04  0.0000E+00  3.1969E+03 -5.3201E+04 -9.5074E+02  5.7349E+04  0.0000E+00  0.0000E+00  0.0000E+00
           2.6798E+04  0.0000E+00  0.0000E+00  0.0000E+00  9.0000E+01  9.0000E+01  9.0000E+01  0.0000E+00  2.6397E+00
 ------------------------------------------------------------------------------------------------------------------------
   201500  7.2197E+03  2.9945E+02  5.2567E+03 -1.3130E+03  5.9397E+02  2.4486E+03  1.6387E+03  1.8885E+03  0.0000E+00
 100.750p  1.4880E+04  0.0000E+00  1.1670E+04 -5.3363E+04 -9.6996E+02  6.6003E+04  0.0000E+00  0.0000E+00  0.0000E+00
   1.282m  2.6798E+04  0.0000E+00  0.0000E+00  0.0000E+00  9.0000E+01  9.0000E+01  9.0000E+01  0.0000E+00  9.2682E-01

  rolling  7.2183E+03  2.9858E+02  5.2260E+03 -1.3069E+03  5.7500E+02  2.3665E+03  1.6828E+03  1.9085E+03  0.0000E+00
 averages  1.7651E+04  0.0000E+00  3.1463E+03 -5.3272E+04 -9.5321E+02  5.7372E+04  0.0000E+00  0.0000E+00  0.0000E+00
           2.6798E+04  0.0000E+00  0.0000E+00  0.0000E+00  9.0000E+01  9.0000E+01  9.0000E+01  0.0000E+00  2.6546E+00
 ------------------------------------------------------------------------------------------------------------------------
   201600  7.2179E+03  2.9898E+02  5.2469E+03 -1.2333E+03  6.2841E+02  2.3076E+03  1.6221E+03  1.9222E+03  0.0000E+00
 100.800p  2.0913E+04  0.0000E+00 -6.5219E+03 -5.4274E+04 -1.0083E+03  4.8760E+04  0.0000E+00  0.0000E+00  0.0000E+00
   1.367m  2.6798E+04  0.0000E+00  0.0000E+00  0.0000E+00  9.0000E+01  9.0000E+01  9.0000E+01  0.0000E+00  4.6299E+00

  rolling  7.2184E+03  2.9832E+02  5.2484E+03 -1.2978E+03  5.7725E+02  2.3660E+03  1.6843E+03  1.9187E+03  0.0000E+00
 averages  1.7765E+04  0.0000E+00  2.8351E+03 -5.3442E+04 -9.5649E+02  5.7234E+04  0.0000E+00  0.0000E+00  0.0000E+00
           2.6798E+04  0.0000E+00  0.0000E+00  0.0000E+00  9.0000E+01  9.0000E+01  9.0000E+01  0.0000E+00  2.7151E+00
 ------------------------------------------------------------------------------------------------------------------------
 ------------------------------------------------------------------------------------------------------------------------

     step     eng_tot    temp_tot     eng_cfg     eng_vdw     eng_cou     eng_bnd     eng_ang     eng_dih     eng_tet
 time          eng_pv    temp_rot     vir_cfg     vir_vdw     vir_cou     vir_bnd     vir_ang     vir_con     vir_tet
 cpu time      volume    temp_shl     eng_shl     vir_shl       alpha        beta       gamma     vir_pmf       press

 ------------------------------------------------------------------------------------------------------------------------
   201700  7.2176E+03  2.9988E+02  5.2253E+03 -1.3833E+03  6.1032E+02  2.3463E+03  1.6725E+03  1.9794E+03  0.0000E+00
 100.850p  1.4738E+04  0.0000E+00  1.2061E+04 -5.2190E+04 -9.8187E+02  6.5232E+04  0.0000E+00  0.0000E+00  0.0000E+00
   1.452m  2.6798E+04  0.0000E+00  0.0000E+00  0.0000E+00  9.0000E+01  9.0000E+01  9.0000E+01  0.0000E+00  8.5179E-01

  rolling  7.2184E+03  2.9819E+02  5.2626E+03 -1.2923E+03  5.8043E+02  2.3681E+03  1.6856E+03  1.9207E+03  0.0000E+00
 averages  1.7843E+04  0.0000E+00  2.6291E+03 -5.3543E+04 -9.5974E+02  5.7132E+04  0.0000E+00  0.0000E+00  0.0000E+00
           2.6798E+04  0.0000E+00  0.0000E+00  0.0000E+00  9.0000E+01  9.0000E+01  9.0000E+01  0.0000E+00  2.7558E+00
 ------------------------------------------------------------------------------------------------------------------------
   201800  7.2192E+03  2.9889E+02  5.2629E+03 -1.2251E+03  6.1123E+02  2.3395E+03  1.6478E+03  1.8895E+03  0.0000E+00
 100.900p  2.0776E+04  0.0000E+00 -6.0763E+03 -5.4215E+04 -9.8445E+02  4.9123E+04  0.0000E+00  0.0000E+00  0.0000E+00
   1.537m  2.6798E+04  0.0000E+00  0.0000E+00  0.0000E+00  9.0000E+01  9.0000E+01  9.0000E+01  0.0000E+00  4.5380E+00

  rolling  7.2184E+03  2.9807E+02  5.2741E+03 -1.2899E+03  5.8293E+02  2.3701E+03  1.6874E+03  1.9235E+03  0.0000E+00
 averages  1.7886E+04  0.0000E+00  2.5176E+03 -5.3581E+04 -9.5997E+02  5.7059E+04  0.0000E+00  0.0000E+00  0.0000E+00
           2.6798E+04  0.0000E+00  0.0000E+00  0.0000E+00  9.0000E+01  9.0000E+01  9.0000E+01  0.0000E+00  2.7772E+00
 ------------------------------------------------------------------------------------------------------------------------
   201900  7.2189E+03  2.9414E+02  5.3986E+03 -1.3769E+03  6.0146E+02  2.4359E+03  1.7527E+03  1.9855E+03  0.0000E+00
 100.950p  1.4948E+04  0.0000E+00  1.1173E+04 -5.2271E+04 -9.7597E+02  6.4420E+04  0.0000E+00  0.0000E+00  0.0000E+00
   1.622m  2.6798E+04  0.0000E+00  0.0000E+00  0.0000E+00  9.0000E+01  9.0000E+01  9.0000E+01  0.0000E+00  9.6945E-01

  rolling  7.2184E+03  2.9816E+02  5.2787E+03 -1.2886E+03  5.8441E+02  2.3710E+03  1.6883E+03  1.9236E+03  0.0000E+00
 averages  1.7933E+04  0.0000E+00  2.4040E+03 -5.3606E+04 -9.6001E+02  5.6970E+04  0.0000E+00  0.0000E+00  0.0000E+00
           2.6798E+04  0.0000E+00  0.0000E+00  0.0000E+00  9.0000E+01  9.0000E+01  9.0000E+01  0.0000E+00  2.8013E+00
 ------------------------------------------------------------------------------------------------------------------------
   202000  7.2177E+03  2.9819E+02  5.2911E+03 -1.2221E+03  6.1398E+02  2.2996E+03  1.6743E+03  1.9253E+03  0.0000E+00
 101.000p  1.9895E+04  0.0000E+00 -3.4408E+03 -5.4102E+04 -9.9633E+02  5.1658E+04  0.0000E+00  0.0000E+00  0.0000E+00
   1.707m  2.6798E+04  0.0000E+00  0.0000E+00  0.0000E+00  9.0000E+01  9.0000E+01  9.0000E+01  0.0000E+00  3.9931E+00

  rolling  7.2185E+03  2.9801E+02  5.2881E+03 -1.2859E+03  5.8762E+02  2.3734E+03  1.6914E+03  1.9216E+03  0.0000E+00
 averages  1.7881E+04  0.0000E+00  2.5680E+03 -5.3643E+04 -9.6231E+02  5.7173E+04  0.0000E+00  0.0000E+00  0.0000E+00
           2.6798E+04  0.0000E+00  0.0000E+00  0.0000E+00  9.0000E+01  9.0000E+01  9.0000E+01  0.0000E+00  2.7663E+00
 ------------------------------------------------------------------------------------------------------------------------
   202100  7.2195E+03  2.9829E+02  5.3028E+03 -1.3801E+03  6.0680E+02  2.4539E+03  1.7084E+03  1.9138E+03  0.0000E+00
 101.050p  1.5835E+04  0.0000E+00  8.7873E+03 -5.1664E+04 -9.8744E+02  6.1439E+04  0.0000E+00  0.0000E+00  0.0000E+00
   1.793m  2.6798E+04  0.0000E+00  0.0000E+00  0.0000E+00  9.0000E+01  9.0000E+01  9.0000E+01  0.0000E+00  1.5015E+00

  rolling  7.2185E+03  2.9818E+02  5.2881E+03 -1.2907E+03  5.9248E+02  2.3742E+03  1.6935E+03  1.9186E+03  0.0000E+00
 averages  1.7958E+04  0.0000E+00  2.3597E+03 -5.3515E+04 -9.6733E+02  5.6842E+04  0.0000E+00  0.0000E+00  0.0000E+00
           2.6798E+04  0.0000E+00  0.0000E+00  0.0000E+00  9.0000E+01  9.0000E+01  9.0000E+01  0.0000E+00  2.8106E+00
 ------------------------------------------------------------------------------------------------------------------------
   202200  7.2196E+03  2.9961E+02  5.2402E+03 -1.3606E+03  5.8665E+02  2.4448E+03  1.6880E+03  1.8814E+03  0.0000E+00
 101.100p  1.6171E+04  0.0000E+00  7.7691E+03 -5.1938E+04 -9.7729E+02  6.0684E+04  0.0000E+00  0.0000E+00  0.0000E+00
   1.878m  2.6798E+04  0.0000E+00  0.0000E+00  0.0000E+00  9.0000E+01  9.0000E+01  9.0000E+01  0.0000E+00  1.7237E+00

  rolling  7.2186E+03  2.9849E+02  5.2818E+03 -1.3039E+03  5.9666E+02  2.3787E+03  1.6965E+03  1.9138E+03  0.0000E+00
 averages  1.7706E+04  0.0000E+00  3.1370E+03 -5.3237E+04 -9.7196E+02  5.7346E+04  0.0000E+00  0.0000E+00  0.0000E+00
           2.6798E+04  0.0000E+00  0.0000E+00  0.0000E+00  9.0000E+01  9.0000E+01  9.0000E+01  0.0000E+00  2.6555E+00
 ------------------------------------------------------------------------------------------------------------------------
   202300  7.2178E+03  2.9780E+02  5.2359E+03 -1.2901E+03  5.7860E+02  2.3326E+03  1.6682E+03  1.9466E+03  0.0000E+00
 101.150p  1.8601E+04  0.0000E+00  2.1962E+02 -5.2979E+04 -9.7550E+02  5.4174E+04  0.0000E+00  0.0000E+00  0.0000E+00
   1.963m  2.6798E+04  0.0000E+00  0.0000E+00  0.0000E+00  9.0000E+01  9.0000E+01  9.0000E+01  0.0000E+00  3.2426E+00

  rolling  7.2186E+03  2.9846E+02  5.2780E+03 -1.3060E+03  5.9943E+02  2.3785E+03  1.6959E+03  1.9101E+03  0.0000E+00
 averages  1.7716E+04  0.0000E+00  3.0924E+03 -5.3123E+04 -9.7641E+02  5.7192E+04  0.0000E+00  0.0000E+00  0.0000E+00
           2.6798E+04  0.0000E+00  0.0000E+00  0.0000E+00  9.0000E+01  9.0000E+01  9.0000E+01  0.0000E+00  2.6643E+00
 ------------------------------------------------------------------------------------------------------------------------
   202400  7.2176E+03  2.9392E+02  5.2928E+03 -1.3792E+03  5.7174E+02  2.4125E+03  1.6907E+03  1.9971E+03  0.0000E+00
 101.200p  1.5004E+04  0.0000E+00  1.0657E+04 -5.1900E+04 -9.8768E+02  6.3544E+04  0.0000E+00  0.0000E+00  0.0000E+00
   2.048m  2.6798E+04  0.0000E+00  0.0000E+00  0.0000E+00  9.0000E+01  9.0000E+01  9.0000E+01  0.0000E+00  1.0722E+00

  rolling  7.2186E+03  2.9827E+02  5.2725E+03 -1.3113E+03  6.0067E+02  2.3813E+03  1.6948E+03  1.9071E+03  0.0000E+00
 averages  1.7552E+04  0.0000E+00  3.5424E+03 -5.2987E+04 -9.8228E+02  5.7512E+04  0.0000E+00  0.0000E+00  0.0000E+00
           2.6798E+04  0.0000E+00  0.0000E+00  0.0000E+00  9.0000E+01  9.0000E+01  9.0000E+01  0.0000E+00  2.5704E+00
 ------------------------------------------------------------------------------------------------------------------------
 ------------------------------------------------------------------------------------------------------------------------

     step     eng_tot    temp_tot     eng_cfg     eng_vdw     eng_cou     eng_bnd     eng_ang     eng_dih     eng_tet
 time          eng_pv    temp_rot     vir_cfg     vir_vdw     vir_cou     vir_bnd     vir_ang     vir_con     vir_tet
 cpu time      volume    temp_shl     eng_shl     vir_shl       alpha        beta       gamma     vir_pmf       press

 ------------------------------------------------------------------------------------------------------------------------
   202500  7.2193E+03  2.8972E+02  5.3826E+03 -1.1710E+03  5.7170E+02  2.3463E+03  1.7215E+03  1.9142E+03  0.0000E+00
 101.250p  2.0698E+04  0.0000E+00 -6.7253E+03 -5.4715E+04 -1.0026E+03  4.8992E+04  0.0000E+00  0.0000E+00  0.0000E+00
   2.133m  2.6798E+04  0.0000E+00  0.0000E+00  0.0000E+00  9.0000E+01  9.0000E+01  9.0000E+01  0.0000E+00  4.5691E+00

  rolling  7.2186E+03  2.9782E+02  5.2709E+03 -1.3083E+03  5.9899E+02  2.3800E+03  1.6939E+03  1.9064E+03  0.0000E+00
 averages  1.7592E+04  0.0000E+00  3.3560E+03 -5.2981E+04 -9.8614E+02  5.7323E+04  0.0000E+00  0.0000E+00  0.0000E+00
           2.6798E+04  0.0000E+00  0.0000E+00  0.0000E+00  9.0000E+01  9.0000E+01  9.0000E+01  0.0000E+00  2.6034E+00
 ------------------------------------------------------------------------------------------------------------------------
   202600  7.2194E+03  2.9367E+02  5.3014E+03 -1.3855E+03  5.6521E+02  2.5014E+03  1.6912E+03  1.9291E+03  0.0000E+00
 101.300p  1.3988E+04  0.0000E+00  1.3697E+04 -5.1704E+04 -9.9649E+02  6.6397E+04  0.0000E+00  0.0000E+00  0.0000E+00
   2.218m  2.6798E+04  0.0000E+00  0.0000E+00  0.0000E+00  9.0000E+01  9.0000E+01  9.0000E+01  0.0000E+00  4.4976E-01

  rolling  7.2185E+03  2.9761E+02  5.2651E+03 -1.3053E+03  5.9464E+02  2.3826E+03  1.6961E+03  1.8971E+03  0.0000E+00
 averages  1.7584E+04  0.0000E+00  3.3346E+03 -5.2975E+04 -9.8769E+02  5.7298E+04  0.0000E+00  0.0000E+00  0.0000E+00
           2.6798E+04  0.0000E+00  0.0000E+00  0.0000E+00  9.0000E+01  9.0000E+01  9.0000E+01  0.0000E+00  2.6055E+00
 ------------------------------------------------------------------------------------------------------------------------
   202700  7.2171E+03  3.0562E+02  4.9972E+03 -1.3913E+03  5.7869E+02  2.3045E+03  1.7305E+03  1.7748E+03  0.0000E+00
 101.350p  1.8359E+04  0.0000E+00  1.2889E+03 -5.1033E+04 -1.0053E+03  5.3327E+04  0.0000E+00  0.0000E+00  0.0000E+00
   2.303m  2.6798E+04  0.0000E+00  0.0000E+00  0.0000E+00  9.0000E+01  9.0000E+01  9.0000E+01  0.0000E+00  3.1109E+00

  rolling  7.2185E+03  2.9810E+02  5.2440E+03 -1.3164E+03  5.8881E+02  2.3868E+03  1.6968E+03  1.8880E+03  0.0000E+00
 averages  1.7399E+04  0.0000E+00  3.8920E+03 -5.2743E+04 -9.8685E+02  5.7622E+04  0.0000E+00  0.0000E+00  0.0000E+00
           2.6798E+04  0.0000E+00  0.0000E+00  0.0000E+00  9.0000E+01  9.0000E+01  9.0000E+01  0.0000E+00  2.4973E+00
 ------------------------------------------------------------------------------------------------------------------------
   202800  7.2183E+03  2.9889E+02  5.1610E+03 -1.4554E+03  5.9470E+02  2.4044E+03  1.6729E+03  1.9444E+03  0.0000E+00
 101.400p  1.4448E+04  0.0000E+00  1.2604E+04 -5.0476E+04 -1.0172E+03  6.4097E+04  0.0000E+00  0.0000E+00  0.0000E+00
   2.388m  2.6798E+04  0.0000E+00  0.0000E+00  0.0000E+00  9.0000E+01  9.0000E+01  9.0000E+01  0.0000E+00  7.3012E-01

  rolling  7.2185E+03  2.9836E+02  5.2285E+03 -1.3255E+03  5.8585E+02  2.3880E+03  1.6987E+03  1.8815E+03  0.0000E+00
 averages  1.7288E+04  0.0000E+00  4.2148E+03 -5.2527E+04 -9.8920E+02  5.7731E+04  0.0000E+00  0.0000E+00  0.0000E+00
           2.6798E+04  0.0000E+00  0.0000E+00  0.0000E+00  9.0000E+01  9.0000E+01  9.0000E+01  0.0000E+00  2.4344E+00
 ------------------------------------------------------------------------------------------------------------------------
   202900  7.2202E+03  2.9411E+02  5.2444E+03 -1.3182E+03  6.0013E+02  2.4254E+03  1.6545E+03  1.8825E+03  0.0000E+00
 101.450p  1.8912E+04  0.0000E+00 -1.1854E+03 -5.2714E+04 -1.0067E+03  5.2535E+04  0.0000E+00  0.0000E+00  0.0000E+00
   2.473m  2.6798E+04  0.0000E+00  0.0000E+00  0.0000E+00  9.0000E+01  9.0000E+01  9.0000E+01  0.0000E+00  3.4883E+00

  rolling  7.2185E+03  2.9839E+02  5.2150E+03 -1.3338E+03  5.8507E+02  2.3883E+03  1.7005E+03  1.8750E+03  0.0000E+00
 averages  1.7132E+04  0.0000E+00  4.6459E+03 -5.2365E+04 -9.9232E+02  5.8003E+04  0.0000E+00  0.0000E+00  0.0000E+00
           2.6798E+04  0.0000E+00  0.0000E+00  0.0000E+00  9.0000E+01  9.0000E+01  9.0000E+01  0.0000E+00  2.3468E+00
 ------------------------------------------------------------------------------------------------------------------------
   203000  7.2178E+03  2.9632E+02  5.1455E+03 -1.3266E+03  5.8793E+02  2.3091E+03  1.6929E+03  1.8821E+03  0.0000E+00
 101.500p  1.7273E+04  0.0000E+00  3.7345E+03 -5.2859E+04 -9.8304E+02  5.7577E+04  0.0000E+00  0.0000E+00  0.0000E+00
   2.558m  2.6798E+04  0.0000E+00  0.0000E+00  0.0000E+00  9.0000E+01  9.0000E+01  9.0000E+01  0.0000E+00  2.5098E+00

  rolling  7.2185E+03  2.9821E+02  5.2021E+03 -1.3382E+03  5.8325E+02  2.3838E+03  1.7006E+03  1.8726E+03  0.0000E+00
 averages  1.7166E+04  0.0000E+00  4.4808E+03 -5.2295E+04 -9.9326E+02  5.7769E+04  0.0000E+00  0.0000E+00  0.0000E+00
           2.6798E+04  0.0000E+00  0.0000E+00  0.0000E+00  9.0000E+01  9.0000E+01  9.0000E+01  0.0000E+00  2.3785E+00
 ------------------------------------------------------------------------------------------------------------------------
   203100  7.2175E+03  2.9408E+02  5.2121E+03 -1.2792E+03  6.2726E+02  2.2596E+03  1.7753E+03  1.8291E+03  0.0000E+00
 101.550p  1.7329E+04  0.0000E+00  3.4622E+03 -5.3323E+04 -1.0133E+03  5.7799E+04  0.0000E+00  0.0000E+00  0.0000E+00
   2.645m  2.6798E+04  0.0000E+00  0.0000E+00  0.0000E+00  9.0000E+01  9.0000E+01  9.0000E+01  0.0000E+00  2.5406E+00

  rolling  7.2185E+03  2.9774E+02  5.1943E+03 -1.3383E+03  5.8251E+02  2.3826E+03  1.6972E+03  1.8702E+03  0.0000E+00
 averages  1.7013E+04  0.0000E+00  4.8507E+03 -5.2325E+04 -9.9256E+02  5.8168E+04  0.0000E+00  0.0000E+00  0.0000E+00
           2.6798E+04  0.0000E+00  0.0000E+00  0.0000E+00  9.0000E+01  9.0000E+01  9.0000E+01  0.0000E+00  2.2979E+00
 ------------------------------------------------------------------------------------------------------------------------
   203200  7.2179E+03  3.0101E+02  5.0962E+03 -1.3262E+03  6.3012E+02  2.4057E+03  1.6006E+03  1.7860E+03  0.0000E+00
 101.600p  1.7088E+04  0.0000E+00  4.7756E+03 -5.2462E+04 -1.0010E+03  5.8238E+04  0.0000E+00  0.0000E+00  0.0000E+00
   2.741m  2.6798E+04  0.0000E+00  0.0000E+00  0.0000E+00  9.0000E+01  9.0000E+01  9.0000E+01  0.0000E+00  2.3494E+00

  rolling  7.2184E+03  2.9691E+02  5.2002E+03 -1.3299E+03  5.8428E+02  2.3775E+03  1.6957E+03  1.8727E+03  0.0000E+00
 averages  1.7212E+04  0.0000E+00  4.1623E+03 -5.2461E+04 -9.9334E+02  5.7617E+04  0.0000E+00  0.0000E+00  0.0000E+00
           2.6798E+04  0.0000E+00  0.0000E+00  0.0000E+00  9.0000E+01  9.0000E+01  9.0000E+01  0.0000E+00  2.4291E+00
 ------------------------------------------------------------------------------------------------------------------------
 ------------------------------------------------------------------------------------------------------------------------

     step     eng_tot    temp_tot     eng_cfg     eng_vdw     eng_cou     eng_bnd     eng_ang     eng_dih     eng_tet
 time          eng_pv    temp_rot     vir_cfg     vir_vdw     vir_cou     vir_bnd     vir_ang     vir_con     vir_tet
 cpu time      volume    temp_shl     eng_shl     vir_shl       alpha        beta       gamma     vir_pmf       press

 ------------------------------------------------------------------------------------------------------------------------
   203300  7.2187E+03  2.9839E+02  5.2780E+03 -1.4078E+03  6.1827E+02  2.4714E+03  1.6534E+03  1.9427E+03  0.0000E+00
 101.650p  1.6297E+04  0.0000E+00  7.3385E+03 -5.1374E+04 -9.9083E+02  5.9703E+04  0.0000E+00  0.0000E+00  0.0000E+00
   2.829m  2.6798E+04  0.0000E+00  0.0000E+00  0.0000E+00  9.0000E+01  9.0000E+01  9.0000E+01  0.0000E+00  1.7979E+00

  rolling  7.2183E+03  2.9691E+02  5.1980E+03 -1.3381E+03  5.8862E+02  2.3789E+03  1.6965E+03  1.8720E+03  0.0000E+00
 averages  1.7058E+04  0.0000E+00  4.6156E+03 -5.2347E+04 -9.9607E+02  5.7958E+04  0.0000E+00  0.0000E+00  0.0000E+00
           2.6798E+04  0.0000E+00  0.0000E+00  0.0000E+00  9.0000E+01  9.0000E+01  9.0000E+01  0.0000E+00  2.3366E+00
 ------------------------------------------------------------------------------------------------------------------------
   203400  7.2188E+03  3.0410E+02  5.1946E+03 -1.3392E+03  6.0285E+02  2.3766E+03  1.6628E+03  1.8915E+03  0.0000E+00
 101.700p  1.8650E+04  0.0000E+00  8.0389E+02 -5.2180E+04 -9.7083E+02  5.3955E+04  0.0000E+00  0.0000E+00  0.0000E+00
   2.917m  2.6798E+04  0.0000E+00  0.0000E+00  0.0000E+00  9.0000E+01  9.0000E+01  9.0000E+01  0.0000E+00  3.1930E+00

  rolling  7.2183E+03  2.9739E+02  5.1972E+03 -1.3456E+03  5.9212E+02  2.3800E+03  1.6967E+03  1.8740E+03  0.0000E+00
 averages  1.7101E+04  0.0000E+00  4.5511E+03 -5.2227E+04 -9.9572E+02  5.7774E+04  0.0000E+00  0.0000E+00  0.0000E+00
           2.6798E+04  0.0000E+00  0.0000E+00  0.0000E+00  9.0000E+01  9.0000E+01  9.0000E+01  0.0000E+00  2.3551E+00
 ------------------------------------------------------------------------------------------------------------------------
   203500  7.2191E+03  2.9915E+02  5.3323E+03 -1.3561E+03  5.8954E+02  2.3672E+03  1.7349E+03  1.9967E+03  0.0000E+00
 101.750p  1.5372E+04  0.0000E+00  1.0378E+04 -5.2176E+04 -9.4971E+02  6.3504E+04  0.0000E+00  0.0000E+00  0.0000E+00
   3.001m  2.6798E+04  0.0000E+00  0.0000E+00  0.0000E+00  9.0000E+01  9.0000E+01  9.0000E+01  0.0000E+00  1.1866E+00

  rolling  7.2184E+03  2.9811E+02  5.1975E+03 -1.3566E+03  5.9395E+02  2.3870E+03  1.6954E+03  1.8778E+03  0.0000E+00
 averages  1.6965E+04  0.0000E+00  5.0578E+03 -5.2063E+04 -9.9127E+02  5.8112E+04  0.0000E+00  0.0000E+00  0.0000E+00
           2.6798E+04  0.0000E+00  0.0000E+00  0.0000E+00  9.0000E+01  9.0000E+01  9.0000E+01  0.0000E+00  2.2598E+00
 ------------------------------------------------------------------------------------------------------------------------
   203600  7.2186E+03  3.0447E+02  5.1588E+03 -1.3292E+03  5.8314E+02  2.3874E+03  1.6226E+03  1.8948E+03  0.0000E+00
 101.800p  1.9587E+04  0.0000E+00 -2.0664E+03 -5.2254E+04 -9.3727E+02  5.1125E+04  0.0000E+00  0.0000E+00  0.0000E+00
   3.086m  2.6798E+04  0.0000E+00  0.0000E+00  0.0000E+00  9.0000E+01  9.0000E+01  9.0000E+01  0.0000E+00  3.7822E+00

  rolling  7.2184E+03  2.9858E+02  5.2032E+03 -1.3629E+03  5.9627E+02  2.3885E+03  1.6950E+03  1.8863E+03  0.0000E+00
 averages  1.6954E+04  0.0000E+00  5.1706E+03 -5.1959E+04 -9.8617E+02  5.8115E+04  0.0000E+00  0.0000E+00  0.0000E+00
           2.6798E+04  0.0000E+00  0.0000E+00  0.0000E+00  9.0000E+01  9.0000E+01  9.0000E+01  0.0000E+00  2.2420E+00
 ------------------------------------------------------------------------------------------------------------------------
   203700  7.2187E+03  2.9695E+02  5.2938E+03 -1.3892E+03  5.8601E+02  2.4608E+03  1.7112E+03  1.9250E+03  0.0000E+00
 101.850p  1.4193E+04  0.0000E+00  1.3502E+04 -5.1673E+04 -9.5953E+02  6.6135E+04  0.0000E+00  0.0000E+00  0.0000E+00
   3.174m  2.6798E+04  0.0000E+00  0.0000E+00  0.0000E+00  9.0000E+01  9.0000E+01  9.0000E+01  0.0000E+00  5.2558E-01

  rolling  7.2185E+03  2.9860E+02  5.2133E+03 -1.3628E+03  5.9855E+02  2.3863E+03  1.6952E+03  1.8961E+03  0.0000E+00
 averages  1.7026E+04  0.0000E+00  4.9870E+03 -5.1979E+04 -9.8143E+02  5.7948E+04  0.0000E+00  0.0000E+00  0.0000E+00
           2.6798E+04  0.0000E+00  0.0000E+00  0.0000E+00  9.0000E+01  9.0000E+01  9.0000E+01  0.0000E+00  2.2796E+00
 ------------------------------------------------------------------------------------------------------------------------
   203800  7.2188E+03  2.9646E+02  5.2192E+03 -1.3345E+03  5.6368E+02  2.3230E+03  1.7465E+03  1.9205E+03  0.0000E+00
 101.900p  1.8850E+04  0.0000E+00 -7.5893E+02 -5.2508E+04 -9.5382E+02  5.2703E+04  0.0000E+00  0.0000E+00  0.0000E+00
   3.261m  2.6798E+04  0.0000E+00  0.0000E+00  0.0000E+00  9.0000E+01  9.0000E+01  9.0000E+01  0.0000E+00  3.4273E+00

  rolling  7.2186E+03  2.9827E+02  5.2244E+03 -1.3552E+03  5.9824E+02  2.3850E+03  1.6938E+03  1.9026E+03  0.0000E+00
 averages  1.7072E+04  0.0000E+00  4.8382E+03 -5.2142E+04 -9.7629E+02  5.7957E+04  0.0000E+00  0.0000E+00  0.0000E+00
           2.6798E+04  0.0000E+00  0.0000E+00  0.0000E+00  9.0000E+01  9.0000E+01  9.0000E+01  0.0000E+00  2.3063E+00
 ------------------------------------------------------------------------------------------------------------------------
   203900  7.2189E+03  2.9406E+02  5.2223E+03 -1.3731E+03  5.4143E+02  2.3060E+03  1.8034E+03  1.9446E+03  0.0000E+00
 101.950p  1.6075E+04  0.0000E+00  7.2527E+03 -5.2031E+04 -9.2866E+02  6.0212E+04  0.0000E+00  0.0000E+00  0.0000E+00
   3.346m  2.6798E+04  0.0000E+00  0.0000E+00  0.0000E+00  9.0000E+01  9.0000E+01  9.0000E+01  0.0000E+00  1.7676E+00

  rolling  7.2186E+03  2.9800E+02  5.2301E+03 -1.3487E+03  5.9475E+02  2.3857E+03  1.6898E+03  1.9085E+03  0.0000E+00
 averages  1.7176E+04  0.0000E+00  4.5053E+03 -5.2256E+04 -9.7050E+02  5.7732E+04  0.0000E+00  0.0000E+00  0.0000E+00
           2.6798E+04  0.0000E+00  0.0000E+00  0.0000E+00  9.0000E+01  9.0000E+01  9.0000E+01  0.0000E+00  2.3711E+00
 ------------------------------------------------------------------------------------------------------------------------
   204000  7.2177E+03  2.9248E+02  5.2197E+03 -1.3254E+03  5.4805E+02  2.3927E+03  1.5981E+03  2.0062E+03  0.0000E+00
 102.000p  1.6240E+04  0.0000E+00  6.5361E+03 -5.2627E+04 -9.3493E+02  6.0098E+04  0.0000E+00  0.0000E+00  0.0000E+00
   3.430m  2.6798E+04  0.0000E+00  0.0000E+00  0.0000E+00  9.0000E+01  9.0000E+01  9.0000E+01  0.0000E+00  1.8963E+00

  rolling  7.2186E+03  2.9809E+02  5.2251E+03 -1.3517E+03  5.8979E+02  2.3898E+03  1.6864E+03  1.9108E+03  0.0000E+00
 averages  1.7060E+04  0.0000E+00  4.8504E+03 -5.2202E+04 -9.6369E+02  5.8016E+04  0.0000E+00  0.0000E+00  0.0000E+00
           2.6798E+04  0.0000E+00  0.0000E+00  0.0000E+00  9.0000E+01  9.0000E+01  9.0000E+01  0.0000E+00  2.3018E+00
 ------------------------------------------------------------------------------------------------------------------------
 ------------------------------------------------------------------------------------------------------------------------

     step     eng_tot    temp_tot     eng_cfg     eng_vdw     eng_cou     eng_bnd     eng_ang     eng_dih     eng_tet
 time          eng_pv    temp_rot     vir_cfg     vir_vdw     vir_cou     vir_bnd     vir_ang     vir_con     vir_tet
 cpu time      volume    temp_shl     eng_shl     vir_shl       alpha        beta       gamma     vir_pmf       press

 ------------------------------------------------------------------------------------------------------------------------
   204100  7.2180E+03  2.9319E+02  5.2048E+03 -1.3318E+03  5.6378E+02  2.3538E+03  1.6619E+03  1.9571E+03  0.0000E+00
 102.050p  1.7888E+04  0.0000E+00  1.6408E+03 -5.2388E+04 -9.5429E+02  5.4983E+04  0.0000E+00  0.0000E+00  0.0000E+00
   3.516m  2.6798E+04  0.0000E+00  0.0000E+00  0.0000E+00  9.0000E+01  9.0000E+01  9.0000E+01  0.0000E+00  2.9020E+00

  rolling  7.2186E+03  2.9803E+02  5.2235E+03 -1.3487E+03  5.8479E+02  2.3859E+03  1.6865E+03  1.9151E+03  0.0000E+00
 averages  1.7147E+04  0.0000E+00  4.5761E+03 -5.2221E+04 -9.5829E+02  5.7755E+04  0.0000E+00  0.0000E+00  0.0000E+00
           2.6798E+04  0.0000E+00  0.0000E+00  0.0000E+00  9.0000E+01  9.0000E+01  9.0000E+01  0.0000E+00  2.3571E+00
 ------------------------------------------------------------------------------------------------------------------------
   204200  7.2187E+03  2.9341E+02  5.2565E+03 -1.4157E+03  5.6254E+02  2.4359E+03  1.7086E+03  1.9651E+03  0.0000E+00
 102.100p  1.4860E+04  0.0000E+00  1.0911E+04 -5.1086E+04 -9.6410E+02  6.2961E+04  0.0000E+00  0.0000E+00  0.0000E+00
   3.601m  2.6798E+04  0.0000E+00  0.0000E+00  0.0000E+00  9.0000E+01  9.0000E+01  9.0000E+01  0.0000E+00  1.0147E+00

  rolling  7.2186E+03  2.9824E+02  5.2142E+03 -1.3539E+03  5.7899E+02  2.3845E+03  1.6865E+03  1.9180E+03  0.0000E+00
 averages  1.6993E+04  0.0000E+00  5.0396E+03 -5.2130E+04 -9.5380E+02  5.8123E+04  0.0000E+00  0.0000E+00  0.0000E+00
           2.6798E+04  0.0000E+00  0.0000E+00  0.0000E+00  9.0000E+01  9.0000E+01  9.0000E+01  0.0000E+00  2.2649E+00
 ------------------------------------------------------------------------------------------------------------------------
   204300  7.2188E+03  2.8794E+02  5.4854E+03 -1.2266E+03  5.6264E+02  2.3647E+03  1.7746E+03  2.0100E+03  0.0000E+00
 102.150p  1.8764E+04  0.0000E+00 -8.5424E+02 -5.3954E+04 -9.7129E+02  5.4071E+04  0.0000E+00  0.0000E+00  0.0000E+00
   3.685m  2.6798E+04  0.0000E+00  0.0000E+00  0.0000E+00  9.0000E+01  9.0000E+01  9.0000E+01  0.0000E+00  3.3527E+00

  rolling  7.2186E+03  2.9797E+02  5.2153E+03 -1.3475E+03  5.7304E+02  2.3818E+03  1.6847E+03  1.9232E+03  0.0000E+00
 averages  1.7104E+04  0.0000E+00  4.6728E+03 -5.2210E+04 -9.5156E+02  5.7834E+04  0.0000E+00  0.0000E+00  0.0000E+00
           2.6798E+04  0.0000E+00  0.0000E+00  0.0000E+00  9.0000E+01  9.0000E+01  9.0000E+01  0.0000E+00  2.3367E+00
 ------------------------------------------------------------------------------------------------------------------------
   204400  7.2183E+03  2.9507E+02  5.4169E+03 -1.3395E+03  5.7170E+02  2.5424E+03  1.6411E+03  2.0012E+03  0.0000E+00
 102.200p  1.6252E+04  0.0000E+00  7.4433E+03 -5.2672E+04 -9.8364E+02  6.1099E+04  0.0000E+00  0.0000E+00  0.0000E+00
   3.770m  2.6798E+04  0.0000E+00  0.0000E+00  0.0000E+00  9.0000E+01  9.0000E+01  9.0000E+01  0.0000E+00  1.7400E+00

  rolling  7.2186E+03  2.9729E+02  5.2280E+03 -1.3367E+03  5.6920E+02  2.3820E+03  1.6824E+03  1.9311E+03  0.0000E+00
 averages  1.7134E+04  0.0000E+00  4.5301E+03 -5.2390E+04 -9.5246E+02  5.7873E+04  0.0000E+00  0.0000E+00  0.0000E+00
           2.6798E+04  0.0000E+00  0.0000E+00  0.0000E+00  9.0000E+01  9.0000E+01  9.0000E+01  0.0000E+00  2.3582E+00
 ------------------------------------------------------------------------------------------------------------------------
   204500  7.2188E+03  3.0320E+02  5.3141E+03 -1.3402E+03  5.5782E+02  2.4027E+03  1.7100E+03  1.9839E+03  0.0000E+00
 102.250p  1.8911E+04  0.0000E+00  2.5742E+02 -5.2326E+04 -9.7091E+02  5.3554E+04  0.0000E+00  0.0000E+00  0.0000E+00
   3.855m  2.6798E+04  0.0000E+00  0.0000E+00  0.0000E+00  9.0000E+01  9.0000E+01  9.0000E+01  0.0000E+00  3.2945E+00

  rolling  7.2185E+03  2.9726E+02  5.2323E+03 -1.3317E+03  5.6682E+02  2.3802E+03  1.6851E+03  1.9318E+03  0.0000E+00
 averages  1.7229E+04  0.0000E+00  4.2531E+03 -5.2474E+04 -9.5524E+02  5.7683E+04  0.0000E+00  0.0000E+00  0.0000E+00
           2.6798E+04  0.0000E+00  0.0000E+00  0.0000E+00  9.0000E+01  9.0000E+01  9.0000E+01  0.0000E+00  2.4144E+00
 ------------------------------------------------------------------------------------------------------------------------
   204600  7.2192E+03  3.0964E+02  5.1666E+03 -1.4959E+03  5.3094E+02  2.5539E+03  1.6457E+03  1.9319E+03  0.0000E+00
 102.300p  1.3505E+04  0.0000E+00  1.6903E+04 -5.0087E+04 -9.4929E+02  6.7939E+04  0.0000E+00  0.0000E+00  0.0000E+00
   3.940m  2.6798E+04  0.0000E+00  0.0000E+00  0.0000E+00  9.0000E+01  9.0000E+01  9.0000E+01  0.0000E+00 -2.7532E-02

  rolling  7.2185E+03  2.9805E+02  5.2238E+03 -1.3409E+03  5.6264E+02  2.3814E+03  1.6884E+03  1.9323E+03  0.0000E+00
 averages  1.7146E+04  0.0000E+00  4.5842E+03 -5.2344E+04 -9.5737E+02  5.7886E+04  0.0000E+00  0.0000E+00  0.0000E+00
           2.6798E+04  0.0000E+00  0.0000E+00  0.0000E+00  9.0000E+01  9.0000E+01  9.0000E+01  0.0000E+00  2.3556E+00
 ------------------------------------------------------------------------------------------------------------------------
   204700  7.2187E+03  3.0380E+02  5.2149E+03 -1.2856E+03  5.2521E+02  2.3064E+03  1.7484E+03  1.9205E+03  0.0000E+00
 102.350p  2.0059E+04  0.0000E+00 -3.4056E+03 -5.2957E+04 -9.3719E+02  5.0489E+04  0.0000E+00  0.0000E+00  0.0000E+00
   4.025m  2.6798E+04  0.0000E+00  0.0000E+00  0.0000E+00  9.0000E+01  9.0000E+01  9.0000E+01  0.0000E+00  4.0478E+00

  rolling  7.2185E+03  2.9851E+02  5.2244E+03 -1.3401E+03  5.5685E+02  2.3859E+03  1.6914E+03  1.9303E+03  0.0000E+00
 averages  1.7117E+04  0.0000E+00  4.7351E+03 -5.2358E+04 -9.5717E+02  5.8050E+04  0.0000E+00  0.0000E+00  0.0000E+00
           2.6798E+04  0.0000E+00  0.0000E+00  0.0000E+00  9.0000E+01  9.0000E+01  9.0000E+01  0.0000E+00  2.3300E+00
 ------------------------------------------------------------------------------------------------------------------------
   204800  7.2185E+03  3.0045E+02  5.1535E+03 -1.3838E+03  5.3547E+02  2.3448E+03  1.7733E+03  1.8836E+03  0.0000E+00
 102.400p  1.4705E+04  0.0000E+00  1.2021E+04 -5.1774E+04 -9.2676E+02  6.4721E+04  0.0000E+00  0.0000E+00  0.0000E+00
   4.110m  2.6798E+04  0.0000E+00  0.0000E+00  0.0000E+00  9.0000E+01  9.0000E+01  9.0000E+01  0.0000E+00  8.6617E-01

  rolling  7.2185E+03  2.9860E+02  5.2297E+03 -1.3381E+03  5.5215E+02  2.3912E+03  1.6928E+03  1.9317E+03  0.0000E+00
 averages  1.7166E+04  0.0000E+00  4.6151E+03 -5.2373E+04 -9.5531E+02  5.7944E+04  0.0000E+00  0.0000E+00  0.0000E+00
           2.6798E+04  0.0000E+00  0.0000E+00  0.0000E+00  9.0000E+01  9.0000E+01  9.0000E+01  0.0000E+00  2.3554E+00
 ------------------------------------------------------------------------------------------------------------------------
 ------------------------------------------------------------------------------------------------------------------------

     step     eng_tot    temp_tot     eng_cfg     eng_vdw     eng_cou     eng_bnd     eng_ang     eng_dih     eng_tet
 time          eng_pv    temp_rot     vir_cfg     vir_vdw     vir_cou     vir_bnd     vir_ang     vir_con     vir_tet
 cpu time      volume    temp_shl     eng_shl     vir_shl       alpha        beta       gamma     vir_pmf       press

 ------------------------------------------------------------------------------------------------------------------------
   204900  7.2188E+03  2.9714E+02  5.0833E+03 -1.3361E+03  5.5494E+02  2.3294E+03  1.6446E+03  1.8906E+03  0.0000E+00
 102.450p  1.8212E+04  0.0000E+00  8.4212E+02 -5.2290E+04 -9.3909E+02  5.4071E+04  0.0000E+00  0.0000E+00  0.0000E+00
   4.195m  2.6798E+04  0.0000E+00  0.0000E+00  0.0000E+00  9.0000E+01  9.0000E+01  9.0000E+01  0.0000E+00  3.1085E+00

  rolling  7.2186E+03  2.9876E+02  5.2246E+03 -1.3444E+03  5.5058E+02  2.3932E+03  1.6943E+03  1.9309E+03  0.0000E+00
 averages  1.7039E+04  0.0000E+00  5.0031E+03 -5.2272E+04 -9.5391E+02  5.8229E+04  0.0000E+00  0.0000E+00  0.0000E+00
           2.6798E+04  0.0000E+00  0.0000E+00  0.0000E+00  9.0000E+01  9.0000E+01  9.0000E+01  0.0000E+00  2.2781E+00
 ------------------------------------------------------------------------------------------------------------------------
   205000  7.2180E+03  2.9219E+02  5.1051E+03 -1.4091E+03  5.7640E+02  2.3692E+03  1.6830E+03  1.8855E+03  0.0000E+00
 102.500p  1.6565E+04  0.0000E+00  5.1779E+03 -5.1237E+04 -9.6245E+02  5.7378E+04  0.0000E+00  0.0000E+00  0.0000E+00
   4.279m  2.6798E+04  0.0000E+00  0.0000E+00  0.0000E+00  9.0000E+01  9.0000E+01  9.0000E+01  0.0000E+00  2.1700E+00

  rolling  7.2186E+03  2.9833E+02  5.2271E+03 -1.3420E+03  5.5250E+02  2.3907E+03  1.6963E+03  1.9295E+03  0.0000E+00
 averages  1.7092E+04  0.0000E+00  4.7917E+03 -5.2285E+04 -9.5540E+02  5.8032E+04  0.0000E+00  0.0000E+00  0.0000E+00
           2.6798E+04  0.0000E+00  0.0000E+00  0.0000E+00  9.0000E+01  9.0000E+01  9.0000E+01  0.0000E+00  2.3164E+00
 ------------------------------------------------------------------------------------------------------------------------
   205100  7.2173E+03  2.9692E+02  4.9466E+03 -1.4123E+03  5.9601E+02  2.2879E+03  1.6709E+03  1.8041E+03  0.0000E+00
 102.550p  1.5596E+04  0.0000E+00  8.2480E+03 -5.1182E+04 -9.8949E+02  6.0420E+04  0.0000E+00  0.0000E+00  0.0000E+00
   4.365m  2.6798E+04  0.0000E+00  0.0000E+00  0.0000E+00  9.0000E+01  9.0000E+01  9.0000E+01  0.0000E+00  1.5963E+00

  rolling  7.2185E+03  2.9818E+02  5.2167E+03 -1.3532E+03  5.5592E+02  2.3939E+03  1.6975E+03  1.9227E+03  0.0000E+00
 averages  1.6901E+04  0.0000E+00  5.3145E+03 -5.2110E+04 -9.5937E+02  5.8384E+04  0.0000E+00  0.0000E+00  0.0000E+00
           2.6798E+04  0.0000E+00  0.0000E+00  0.0000E+00  9.0000E+01  9.0000E+01  9.0000E+01  0.0000E+00  2.2083E+00
 ------------------------------------------------------------------------------------------------------------------------
   205200  7.2173E+03  2.9219E+02  5.1264E+03 -1.3665E+03  5.8907E+02  2.3184E+03  1.7239E+03  1.8616E+03  0.0000E+00
 102.600p  1.6986E+04  0.0000E+00  3.9786E+03 -5.1924E+04 -9.8190E+02  5.6885E+04  0.0000E+00  0.0000E+00  0.0000E+00
   4.449m  2.6798E+04  0.0000E+00  0.0000E+00  0.0000E+00  9.0000E+01  9.0000E+01  9.0000E+01  0.0000E+00  2.4144E+00

  rolling  7.2184E+03  2.9779E+02  5.2110E+03 -1.3582E+03  5.5921E+02  2.3949E+03  1.6980E+03  1.9171E+03  0.0000E+00
 averages  1.6943E+04  0.0000E+00  5.1191E+03 -5.2041E+04 -9.6281E+02  5.8122E+04  0.0000E+00  0.0000E+00  0.0000E+00
           2.6798E+04  0.0000E+00  0.0000E+00  0.0000E+00  9.0000E+01  9.0000E+01  9.0000E+01  0.0000E+00  2.2437E+00
 ------------------------------------------------------------------------------------------------------------------------
   205300  7.2163E+03  2.9761E+02  5.1173E+03 -1.3949E+03  5.7317E+02  2.3993E+03  1.6387E+03  1.9011E+03  0.0000E+00
 102.650p  1.6018E+04  0.0000E+00  7.5872E+03 -5.1682E+04 -9.6390E+02  6.0233E+04  0.0000E+00  0.0000E+00  0.0000E+00
   4.534m  2.6798E+04  0.0000E+00  0.0000E+00  0.0000E+00  9.0000E+01  9.0000E+01  9.0000E+01  0.0000E+00  1.7386E+00

  rolling  7.2183E+03  2.9743E+02  5.2069E+03 -1.3629E+03  5.6052E+02  2.3977E+03  1.7000E+03  1.9115E+03  0.0000E+00
 averages  1.6796E+04  0.0000E+00  5.5000E+03 -5.1994E+04 -9.6235E+02  5.8456E+04  0.0000E+00  0.0000E+00  0.0000E+00
           2.6798E+04  0.0000E+00  0.0000E+00  0.0000E+00  9.0000E+01  9.0000E+01  9.0000E+01  0.0000E+00  2.1621E+00
 ------------------------------------------------------------------------------------------------------------------------
   205400  7.2179E+03  2.9596E+02  5.3533E+03 -1.3330E+03  5.5675E+02  2.4561E+03  1.7133E+03  1.9602E+03  0.0000E+00
 102.700p  1.8663E+04  0.0000E+00  1.3649E+02 -5.2451E+04 -9.3120E+02  5.3518E+04  0.0000E+00  0.0000E+00  0.0000E+00
   4.618m  2.6798E+04  0.0000E+00  0.0000E+00  0.0000E+00  9.0000E+01  9.0000E+01  9.0000E+01  0.0000E+00  3.2392E+00

  rolling  7.2183E+03  2.9755E+02  5.1967E+03 -1.3684E+03  5.5993E+02  2.3950E+03  1.7051E+03  1.9051E+03  0.0000E+00
 averages  1.6787E+04  0.0000E+00  5.5113E+03 -5.1899E+04 -9.5863E+02  5.8369E+04  0.0000E+00  0.0000E+00  0.0000E+00
           2.6798E+04  0.0000E+00  0.0000E+00  0.0000E+00  9.0000E+01  9.0000E+01  9.0000E+01  0.0000E+00  2.1611E+00
 ------------------------------------------------------------------------------------------------------------------------
   205500  7.2187E+03  2.9917E+02  5.4440E+03 -1.3659E+03  5.5577E+02  2.5453E+03  1.7497E+03  1.9592E+03  0.0000E+00
 102.750p  1.4872E+04  0.0000E+00  1.2218E+04 -5.2042E+04 -9.1016E+02  6.5170E+04  0.0000E+00  0.0000E+00  0.0000E+00
   4.703m  2.6798E+04  0.0000E+00  0.0000E+00  0.0000E+00  9.0000E+01  9.0000E+01  9.0000E+01  0.0000E+00  8.1174E-01

  rolling  7.2182E+03  2.9741E+02  5.1993E+03 -1.3685E+03  5.5863E+02  2.3964E+03  1.7085E+03  1.9043E+03  0.0000E+00
 averages  1.6728E+04  0.0000E+00  5.6761E+03 -5.1887E+04 -9.5262E+02  5.8516E+04  0.0000E+00  0.0000E+00  0.0000E+00
           2.6798E+04  0.0000E+00  0.0000E+00  0.0000E+00  9.0000E+01  9.0000E+01  9.0000E+01  0.0000E+00  2.1260E+00
 ------------------------------------------------------------------------------------------------------------------------
   205600  7.2179E+03  3.0082E+02  5.5324E+03 -1.2225E+03  5.4683E+02  2.3594E+03  1.7875E+03  2.0612E+03  0.0000E+00
 102.800p  2.0423E+04  0.0000E+00 -3.9478E+03 -5.3896E+04 -9.1189E+02  5.0860E+04  0.0000E+00  0.0000E+00  0.0000E+00
   4.787m  2.6798E+04  0.0000E+00  0.0000E+00  0.0000E+00  9.0000E+01  9.0000E+01  9.0000E+01  0.0000E+00  4.1254E+00

  rolling  7.2182E+03  2.9696E+02  5.2185E+03 -1.3565E+03  5.5953E+02  2.3998E+03  1.7102E+03  1.9055E+03  0.0000E+00
 averages  1.6847E+04  0.0000E+00  5.3180E+03 -5.2065E+04 -9.4786E+02  5.8331E+04  0.0000E+00  0.0000E+00  0.0000E+00
           2.6798E+04  0.0000E+00  0.0000E+00  0.0000E+00  9.0000E+01  9.0000E+01  9.0000E+01  0.0000E+00  2.1940E+00
 ------------------------------------------------------------------------------------------------------------------------
 ------------------------------------------------------------------------------------------------------------------------

     step     eng_tot    temp_tot     eng_cfg     eng_vdw     eng_cou     eng_bnd     eng_ang     eng_dih     eng_tet
 time          eng_pv    temp_rot     vir_cfg     vir_vdw     vir_cou     vir_bnd     vir_ang     vir_con     vir_tet
 cpu time      volume    temp_shl     eng_shl     vir_shl       alpha        beta       gamma     vir_pmf       press

 ------------------------------------------------------------------------------------------------------------------------
   205700  7.2188E+03  3.0064E+02  5.6045E+03 -1.3087E+03  5.7201E+02  2.4503E+03  1.8500E+03  2.0409E+03  0.0000E+00
 102.850p  1.5241E+04  0.0000E+00  1.1791E+04 -5.2806E+04 -9.4284E+02  6.5540E+04  0.0000E+00  0.0000E+00  0.0000E+00
   4.872m  2.6798E+04  0.0000E+00  0.0000E+00  0.0000E+00  9.0000E+01  9.0000E+01  9.0000E+01  0.0000E+00  9.1523E-01

  rolling  7.2181E+03  2.9668E+02  5.2473E+03 -1.3431E+03  5.6276E+02  2.4031E+03  1.7132E+03  1.9113E+03  0.0000E+00
 averages  1.7019E+04  0.0000E+00  4.8492E+03 -5.2262E+04 -9.4695E+02  5.8058E+04  0.0000E+00  0.0000E+00  0.0000E+00
           2.6798E+04  0.0000E+00  0.0000E+00  0.0000E+00  9.0000E+01  9.0000E+01  9.0000E+01  0.0000E+00  2.2866E+00
 ------------------------------------------------------------------------------------------------------------------------
   205800  7.2209E+03  3.0380E+02  5.4947E+03 -1.3467E+03  5.6263E+02  2.4709E+03  1.7965E+03  2.0113E+03  0.0000E+00
 102.900p  1.9144E+04  0.0000E+00  1.8083E+02 -5.1890E+04 -9.4946E+02  5.3020E+04  0.0000E+00  0.0000E+00  0.0000E+00
   4.957m  2.6798E+04  0.0000E+00  0.0000E+00  0.0000E+00  9.0000E+01  9.0000E+01  9.0000E+01  0.0000E+00  3.3167E+00

  rolling  7.2182E+03  2.9745E+02  5.2643E+03 -1.3452E+03  5.6567E+02  2.4082E+03  1.7202E+03  1.9155E+03  0.0000E+00
 averages  1.7011E+04  0.0000E+00  5.0279E+03 -5.2218E+04 -9.4781E+02  5.8194E+04  0.0000E+00  0.0000E+00  0.0000E+00
           2.6798E+04  0.0000E+00  0.0000E+00  0.0000E+00  9.0000E+01  9.0000E+01  9.0000E+01  0.0000E+00  2.2586E+00
 ------------------------------------------------------------------------------------------------------------------------
   205900  7.2200E+03  3.0613E+02  5.2878E+03 -1.4165E+03  5.6459E+02  2.5883E+03  1.6370E+03  1.9144E+03  0.0000E+00
 102.950p  1.4983E+04  0.0000E+00  1.2358E+04 -5.1010E+04 -9.4021E+02  6.4308E+04  0.0000E+00  0.0000E+00  0.0000E+00
   5.042m  2.6798E+04  0.0000E+00  0.0000E+00  0.0000E+00  9.0000E+01  9.0000E+01  9.0000E+01  0.0000E+00  8.6024E-01

  rolling  7.2183E+03  2.9827E+02  5.2868E+03 -1.3434E+03  5.6798E+02  2.4150E+03  1.7271E+03  1.9201E+03  0.0000E+00
 averages  1.7127E+04  0.0000E+00  4.8610E+03 -5.2210E+04 -9.4951E+02  5.8020E+04  0.0000E+00  0.0000E+00  0.0000E+00
           2.6798E+04  0.0000E+00  0.0000E+00  0.0000E+00  9.0000E+01  9.0000E+01  9.0000E+01  0.0000E+00  2.3017E+00
 ------------------------------------------------------------------------------------------------------------------------
   206000  7.2194E+03  2.9853E+02  5.2681E+03 -1.3213E+03  5.5443E+02  2.3964E+03  1.7335E+03  1.9051E+03  0.0000E+00
 103.000p  1.7219E+04  0.0000E+00  4.5636E+03 -5.2434E+04 -9.4935E+02  5.7947E+04  0.0000E+00  0.0000E+00  0.0000E+00
   5.126m  2.6798E+04  0.0000E+00  0.0000E+00  0.0000E+00  9.0000E+01  9.0000E+01  9.0000E+01  0.0000E+00  2.3651E+00

  rolling  7.2184E+03  2.9927E+02  5.3000E+03 -1.3467E+03  5.6748E+02  2.4236E+03  1.7312E+03  1.9245E+03  0.0000E+00
 averages  1.7081E+04  0.0000E+00  5.1732E+03 -5.2149E+04 -9.4935E+02  5.8271E+04  0.0000E+00  0.0000E+00  0.0000E+00
           2.6798E+04  0.0000E+00  0.0000E+00  0.0000E+00  9.0000E+01  9.0000E+01  9.0000E+01  0.0000E+00  2.2490E+00
 ------------------------------------------------------------------------------------------------------------------------
   206100  7.2192E+03  2.8646E+02  5.3738E+03 -1.3247E+03  5.5914E+02  2.3136E+03  1.7710E+03  2.0547E+03  0.0000E+00
 103.050p  1.7319E+04  0.0000E+00  2.9452E+03 -5.2654E+04 -9.6149E+02  5.6561E+04  0.0000E+00  0.0000E+00  0.0000E+00
   5.212m  2.6798E+04  0.0000E+00  0.0000E+00  0.0000E+00  9.0000E+01  9.0000E+01  9.0000E+01  0.0000E+00  2.5619E+00

  rolling  7.2185E+03  2.9946E+02  5.3189E+03 -1.3367E+03  5.6455E+02  2.4273E+03  1.7318E+03  1.9318E+03  0.0000E+00
 averages  1.7277E+04  0.0000E+00  4.6657E+03 -5.2301E+04 -9.4803E+02  5.7915E+04  0.0000E+00  0.0000E+00  0.0000E+00
           2.6798E+04  0.0000E+00  0.0000E+00  0.0000E+00  9.0000E+01  9.0000E+01  9.0000E+01  0.0000E+00  2.3546E+00
 ------------------------------------------------------------------------------------------------------------------------
   206200  7.2176E+03  2.9110E+02  5.1098E+03 -1.3934E+03  5.5072E+02  2.2968E+03  1.7161E+03  1.9396E+03  0.0000E+00
 103.100p  1.6058E+04  0.0000E+00  6.5661E+03 -5.1651E+04 -9.6676E+02  5.9183E+04  0.0000E+00  0.0000E+00  0.0000E+00
   5.296m  2.6798E+04  0.0000E+00  0.0000E+00  0.0000E+00  9.0000E+01  9.0000E+01  9.0000E+01  0.0000E+00  1.8749E+00

  rolling  7.2186E+03  2.9942E+02  5.3248E+03 -1.3320E+03  5.6116E+02  2.4292E+03  1.7302E+03  1.9361E+03  0.0000E+00
 averages  1.7226E+04  0.0000E+00  4.8320E+03 -5.2392E+04 -9.4653E+02  5.8171E+04  0.0000E+00  0.0000E+00  0.0000E+00
           2.6798E+04  0.0000E+00  0.0000E+00  0.0000E+00  9.0000E+01  9.0000E+01  9.0000E+01  0.0000E+00  2.3202E+00
 ------------------------------------------------------------------------------------------------------------------------
   206300  7.2177E+03  2.8452E+02  5.2423E+03 -1.3482E+03  5.4449E+02  2.3764E+03  1.7076E+03  1.9620E+03  0.0000E+00
 103.150p  1.6550E+04  0.0000E+00  4.5953E+03 -5.2095E+04 -9.5805E+02  5.7648E+04  0.0000E+00  0.0000E+00  0.0000E+00
   5.380m  2.6798E+04  0.0000E+00  0.0000E+00  0.0000E+00  9.0000E+01  9.0000E+01  9.0000E+01  0.0000E+00  2.2040E+00

  rolling  7.2187E+03  2.9929E+02  5.3143E+03 -1.3326E+03  5.5850E+02  2.4253E+03  1.7281E+03  1.9349E+03  0.0000E+00
 averages  1.7290E+04  0.0000E+00  4.5917E+03 -5.2375E+04 -9.4647E+02  5.7913E+04  0.0000E+00  0.0000E+00  0.0000E+00
           2.6798E+04  0.0000E+00  0.0000E+00  0.0000E+00  9.0000E+01  9.0000E+01  9.0000E+01  0.0000E+00  2.3678E+00
 ------------------------------------------------------------------------------------------------------------------------
   206400  7.2162E+03  2.9553E+02  5.0005E+03 -1.4038E+03  5.5196E+02  2.4239E+03  1.6115E+03  1.8169E+03  0.0000E+00
 103.200p  1.5286E+04  0.0000E+00  9.1523E+03 -5.1296E+04 -9.7277E+02  6.1421E+04  0.0000E+00  0.0000E+00  0.0000E+00
   5.464m  2.6798E+04  0.0000E+00  0.0000E+00  0.0000E+00  9.0000E+01  9.0000E+01  9.0000E+01  0.0000E+00  1.3967E+00

  rolling  7.2187E+03  2.9865E+02  5.3013E+03 -1.3383E+03  5.5703E+02  2.4260E+03  1.7243E+03  1.9323E+03  0.0000E+00
 averages  1.7104E+04  0.0000E+00  5.0222E+03 -5.2281E+04 -9.4852E+02  5.8252E+04  0.0000E+00  0.0000E+00  0.0000E+00
           2.6798E+04  0.0000E+00  0.0000E+00  0.0000E+00  9.0000E+01  9.0000E+01  9.0000E+01  0.0000E+00  2.2729E+00
 ------------------------------------------------------------------------------------------------------------------------
 ------------------------------------------------------------------------------------------------------------------------

     step     eng_tot    temp_tot     eng_cfg     eng_vdw     eng_cou     eng_bnd     eng_ang     eng_dih     eng_tet
 time          eng_pv    temp_rot     vir_cfg     vir_vdw     vir_cou     vir_bnd     vir_ang     vir_con     vir_tet
 cpu time      volume    temp_shl     eng_shl     vir_shl       alpha        beta       gamma     vir_pmf       press

 ------------------------------------------------------------------------------------------------------------------------
   206500  7.2169E+03  2.9607E+02  5.1285E+03 -1.4145E+03  5.5936E+02  2.3946E+03  1.7233E+03  1.8657E+03  0.0000E+00
 103.250p  1.7270E+04  0.0000E+00  3.6592E+03 -5.1013E+04 -9.9584E+02  5.5668E+04  0.0000E+00  0.0000E+00  0.0000E+00
   5.548m  2.6798E+04  0.0000E+00  0.0000E+00  0.0000E+00  9.0000E+01  9.0000E+01  9.0000E+01  0.0000E+00  2.5224E+00

  rolling  7.2186E+03  2.9792E+02  5.2821E+03 -1.3442E+03  5.5707E+02  2.4221E+03  1.7212E+03  1.9258E+03  0.0000E+00
 averages  1.7043E+04  0.0000E+00  5.0480E+03 -5.2171E+04 -9.5456E+02  5.8174E+04  0.0000E+00  0.0000E+00  0.0000E+00
           2.6798E+04  0.0000E+00  0.0000E+00  0.0000E+00  9.0000E+01  9.0000E+01  9.0000E+01  0.0000E+00  2.2596E+00
 ------------------------------------------------------------------------------------------------------------------------
   206600  7.2179E+03  3.0323E+02  5.1217E+03 -1.4772E+03  5.6913E+02  2.3349E+03  1.8180E+03  1.8768E+03  0.0000E+00
 103.300p  1.4687E+04  0.0000E+00  1.2355E+04 -5.0191E+04 -1.0119E+03  6.3558E+04  0.0000E+00  0.0000E+00  0.0000E+00
   5.632m  2.6798E+04  0.0000E+00  0.0000E+00  0.0000E+00  9.0000E+01  9.0000E+01  9.0000E+01  0.0000E+00  8.2872E-01

  rolling  7.2185E+03  2.9740E+02  5.2580E+03 -1.3580E+03  5.5825E+02  2.4190E+03  1.7198E+03  1.9190E+03  0.0000E+00
 averages  1.6850E+04  0.0000E+00  5.4859E+03 -5.1958E+04 -9.6358E+02  5.8408E+04  0.0000E+00  0.0000E+00  0.0000E+00
           2.6798E+04  0.0000E+00  0.0000E+00  0.0000E+00  9.0000E+01  9.0000E+01  9.0000E+01  0.0000E+00  2.1647E+00
 ------------------------------------------------------------------------------------------------------------------------
   206700  7.2187E+03  3.0205E+02  5.3141E+03 -1.4025E+03  5.6986E+02  2.4239E+03  1.8001E+03  1.9228E+03  0.0000E+00
 103.350p  1.8084E+04  0.0000E+00  2.5805E+03 -5.1435E+04 -1.0076E+03  5.5023E+04  0.0000E+00  0.0000E+00  0.0000E+00
   5.717m  2.6798E+04  0.0000E+00  0.0000E+00  0.0000E+00  9.0000E+01  9.0000E+01  9.0000E+01  0.0000E+00  2.8082E+00

  rolling  7.2184E+03  2.9722E+02  5.2328E+03 -1.3756E+03  5.5941E+02  2.4142E+03  1.7207E+03  1.9141E+03  0.0000E+00
 averages  1.6685E+04  0.0000E+00  5.8821E+03 -5.1699E+04 -9.7155E+02  5.8553E+04  0.0000E+00  0.0000E+00  0.0000E+00
           2.6798E+04  0.0000E+00  0.0000E+00  0.0000E+00  9.0000E+01  9.0000E+01  9.0000E+01  0.0000E+00  2.0819E+00
 ------------------------------------------------------------------------------------------------------------------------
   206800  7.2186E+03  3.0258E+02  5.4024E+03 -1.3736E+03  5.7655E+02  2.4510E+03  1.7303E+03  2.0181E+03  0.0000E+00
 103.400p  1.7654E+04  0.0000E+00  4.2101E+03 -5.2256E+04 -9.9886E+02  5.7465E+04  0.0000E+00  0.0000E+00  0.0000E+00
   5.801m  2.6798E+04  0.0000E+00  0.0000E+00  0.0000E+00  9.0000E+01  9.0000E+01  9.0000E+01  0.0000E+00  2.4819E+00

  rolling  7.2183E+03  2.9684E+02  5.2238E+03 -1.3794E+03  5.6049E+02  2.4103E+03  1.7207E+03  1.9117E+03  0.0000E+00
 averages  1.6677E+04  0.0000E+00  5.8280E+03 -5.1688E+04 -9.7705E+02  5.8493E+04  0.0000E+00  0.0000E+00  0.0000E+00
           2.6798E+04  0.0000E+00  0.0000E+00  0.0000E+00  9.0000E+01  9.0000E+01  9.0000E+01  0.0000E+00  2.0888E+00
 ------------------------------------------------------------------------------------------------------------------------
   206900  7.2193E+03  2.9962E+02  5.5387E+03 -1.3238E+03  5.7664E+02  2.4545E+03  1.8319E+03  1.9994E+03  0.0000E+00
 103.450p  1.8596E+04  0.0000E+00  1.3914E+03 -5.3049E+04 -9.9369E+02  5.5434E+04  0.0000E+00  0.0000E+00  0.0000E+00
   5.886m  2.6798E+04  0.0000E+00  0.0000E+00  0.0000E+00  9.0000E+01  9.0000E+01  9.0000E+01  0.0000E+00  3.0238E+00

  rolling  7.2182E+03  2.9635E+02  5.2343E+03 -1.3727E+03  5.6120E+02  2.4089E+03  1.7241E+03  1.9128E+03  0.0000E+00
 averages  1.6756E+04  0.0000E+00  5.5537E+03 -5.1865E+04 -9.8066E+02  5.8399E+04  0.0000E+00  0.0000E+00  0.0000E+00
           2.6798E+04  0.0000E+00  0.0000E+00  0.0000E+00  9.0000E+01  9.0000E+01  9.0000E+01  0.0000E+00  2.1392E+00
 ------------------------------------------------------------------------------------------------------------------------
   207000  7.2191E+03  3.0479E+02  5.3985E+03 -1.2997E+03  5.7665E+02  2.4133E+03  1.8031E+03  1.9052E+03  0.0000E+00
 103.500p  1.6364E+04  0.0000E+00  8.3655E+03 -5.3463E+04 -1.0005E+03  6.2829E+04  0.0000E+00  0.0000E+00  0.0000E+00
   5.970m  2.6798E+04  0.0000E+00  0.0000E+00  0.0000E+00  9.0000E+01  9.0000E+01  9.0000E+01  0.0000E+00  1.6592E+00

  rolling  7.2182E+03  2.9636E+02  5.2527E+03 -1.3661E+03  5.6321E+02  2.4093E+03  1.7295E+03  1.9167E+03  0.0000E+00
 averages  1.6914E+04  0.0000E+00  5.1384E+03 -5.2033E+04 -9.8592E+02  5.8158E+04  0.0000E+00  0.0000E+00  0.0000E+00
           2.6798E+04  0.0000E+00  0.0000E+00  0.0000E+00  9.0000E+01  9.0000E+01  9.0000E+01  0.0000E+00  2.2240E+00
 ------------------------------------------------------------------------------------------------------------------------
   207100  7.2189E+03  3.0305E+02  5.4052E+03 -1.3561E+03  6.1364E+02  2.4446E+03  1.7900E+03  1.9131E+03  0.0000E+00
 103.550p  2.0156E+04  0.0000E+00 -3.2247E+03 -5.2237E+04 -1.0513E+03  5.0063E+04  0.0000E+00  0.0000E+00  0.0000E+00
   6.055m  2.6798E+04  0.0000E+00  0.0000E+00  0.0000E+00  9.0000E+01  9.0000E+01  9.0000E+01  0.0000E+00  4.0027E+00

  rolling  7.2182E+03  2.9700E+02  5.2754E+03 -1.3673E+03  5.6716E+02  2.4145E+03  1.7381E+03  1.9229E+03  0.0000E+00
 averages  1.6929E+04  0.0000E+00  5.2478E+03 -5.2055E+04 -9.9206E+02  5.8295E+04  0.0000E+00  0.0000E+00  0.0000E+00
           2.6798E+04  0.0000E+00  0.0000E+00  0.0000E+00  9.0000E+01  9.0000E+01  9.0000E+01  0.0000E+00  2.2087E+00
 ------------------------------------------------------------------------------------------------------------------------
   207200  7.2192E+03  3.0421E+02  5.2816E+03 -1.4927E+03  6.2537E+02  2.4628E+03  1.7314E+03  1.9547E+03  0.0000E+00
 103.600p  1.4278E+04  0.0000E+00  1.4195E+04 -5.0133E+04 -1.0583E+03  6.5387E+04  0.0000E+00  0.0000E+00  0.0000E+00
   6.140m  2.6798E+04  0.0000E+00  0.0000E+00  0.0000E+00  9.0000E+01  9.0000E+01  9.0000E+01  0.0000E+00  4.6447E-01

  rolling  7.2183E+03  2.9829E+02  5.2921E+03 -1.3753E+03  5.7321E+02  2.4179E+03  1.7479E+03  1.9285E+03  0.0000E+00
 averages  1.7000E+04  0.0000E+00  5.2587E+03 -5.1934E+04 -9.9978E+02  5.8193E+04  0.0000E+00  0.0000E+00  0.0000E+00
           2.6798E+04  0.0000E+00  0.0000E+00  0.0000E+00  9.0000E+01  9.0000E+01  9.0000E+01  0.0000E+00  2.2208E+00
 ------------------------------------------------------------------------------------------------------------------------
 ------------------------------------------------------------------------------------------------------------------------

     step     eng_tot    temp_tot     eng_cfg     eng_vdw     eng_cou     eng_bnd     eng_ang     eng_dih     eng_tet
[...]
 199.200p  1.5917E+04  0.0000E+00  8.0786E+03 -4.7488E+04 -8.7985E+02  5.6447E+04  0.0000E+00  0.0000E+00  0.0000E+00
   2.831h  2.6798E+04  0.0000E+00  0.0000E+00  0.0000E+00  9.0000E+01  9.0000E+01  9.0000E+01  0.0000E+00  1.5575E+00

  rolling  7.2167E+03  2.9865E+02  5.4931E+03 -1.6996E+03  4.1443E+02  2.8372E+03  1.9580E+03  1.9830E+03  0.0000E+00
 averages  1.3627E+04  0.0000E+00  1.6032E+04 -4.6570E+04 -9.0686E+02  6.3509E+04  0.0000E+00  0.0000E+00  0.0000E+00
           2.6798E+04  0.0000E+00  0.0000E+00  0.0000E+00  9.0000E+01  9.0000E+01  9.0000E+01  0.0000E+00  2.8781E-02
 ------------------------------------------------------------------------------------------------------------------------
 ------------------------------------------------------------------------------------------------------------------------

     step     eng_tot    temp_tot     eng_cfg     eng_vdw     eng_cou     eng_bnd     eng_ang     eng_dih     eng_tet
 time          eng_pv    temp_rot     vir_cfg     vir_vdw     vir_cou     vir_bnd     vir_ang     vir_con     vir_tet
 cpu time      volume    temp_shl     eng_shl     vir_shl       alpha        beta       gamma     vir_pmf       press

 ------------------------------------------------------------------------------------------------------------------------
   398500  7.2143E+03  2.9477E+02  5.5066E+03 -1.6866E+03  3.9941E+02  2.7859E+03  1.9873E+03  2.0206E+03  0.0000E+00
 199.250p  1.0729E+04  0.0000E+00  2.4239E+04 -4.6953E+04 -8.7698E+02  7.2069E+04  0.0000E+00  0.0000E+00  0.0000E+00
   2.833h  2.6798E+04  0.0000E+00  0.0000E+00  0.0000E+00  9.0000E+01  9.0000E+01  9.0000E+01  0.0000E+00 -1.6872E+00

  rolling  7.2167E+03  2.9808E+02  5.4905E+03 -1.6976E+03  4.1495E+02  2.8312E+03  1.9572E+03  1.9848E+03  0.0000E+00
 averages  1.3686E+04  0.0000E+00  1.5767E+04 -4.6668E+04 -9.0548E+02  6.3340E+04  0.0000E+00  0.0000E+00  0.0000E+00
           2.6798E+04  0.0000E+00  0.0000E+00  0.0000E+00  9.0000E+01  9.0000E+01  9.0000E+01  0.0000E+00  7.6432E-02
 ------------------------------------------------------------------------------------------------------------------------
   398600  7.2164E+03  2.9516E+02  5.6328E+03 -1.7144E+03  4.2500E+02  2.8949E+03  1.9732E+03  2.0542E+03  0.0000E+00
 199.300p  1.6245E+04  0.0000E+00  8.1231E+03 -4.6347E+04 -9.2603E+02  5.5396E+04  0.0000E+00  0.0000E+00  0.0000E+00
   2.834h  2.6798E+04  0.0000E+00  0.0000E+00  0.0000E+00  9.0000E+01  9.0000E+01  9.0000E+01  0.0000E+00  1.6024E+00

  rolling  7.2167E+03  2.9755E+02  5.4850E+03 -1.6954E+03  4.1608E+02  2.8272E+03  1.9533E+03  1.9838E+03  0.0000E+00
 averages  1.3719E+04  0.0000E+00  1.5582E+04 -4.6743E+04 -9.0550E+02  6.3231E+04  0.0000E+00  0.0000E+00  0.0000E+00
           2.6798E+04  0.0000E+00  0.0000E+00  0.0000E+00  9.0000E+01  9.0000E+01  9.0000E+01  0.0000E+00  1.0827E-01
 ------------------------------------------------------------------------------------------------------------------------
   398700  7.2181E+03  2.9526E+02  5.7475E+03 -1.7373E+03  4.3858E+02  2.9054E+03  2.1019E+03  2.0390E+03  0.0000E+00
 199.350p  1.2159E+04  0.0000E+00  2.0737E+04 -4.5924E+04 -9.4335E+02  6.7605E+04  0.0000E+00  0.0000E+00  0.0000E+00
   2.836h  2.6798E+04  0.0000E+00  0.0000E+00  0.0000E+00  9.0000E+01  9.0000E+01  9.0000E+01  0.0000E+00 -9.6781E-01

  rolling  7.2166E+03  2.9711E+02  5.4832E+03 -1.6945E+03  4.1875E+02  2.8259E+03  1.9486E+03  1.9844E+03  0.0000E+00
 averages  1.3745E+04  0.0000E+00  1.5438E+04 -4.6767E+04 -9.0767E+02  6.3113E+04  0.0000E+00  0.0000E+00  0.0000E+00
           2.6798E+04  0.0000E+00  0.0000E+00  0.0000E+00  9.0000E+01  9.0000E+01  9.0000E+01  0.0000E+00  1.3276E-01
 ------------------------------------------------------------------------------------------------------------------------
   398800  7.2171E+03  3.0157E+02  5.6438E+03 -1.7105E+03  4.3804E+02  2.8338E+03  2.0373E+03  2.0451E+03  0.0000E+00
 199.400p  1.2843E+04  0.0000E+00  1.9230E+04 -4.6295E+04 -9.3551E+02  6.6460E+04  0.0000E+00  0.0000E+00  0.0000E+00
   2.837h  2.6798E+04  0.0000E+00  0.0000E+00  0.0000E+00  9.0000E+01  9.0000E+01  9.0000E+01  0.0000E+00 -5.9089E-01

  rolling  7.2165E+03  2.9716E+02  5.4795E+03 -1.7000E+03  4.2094E+02  2.8288E+03  1.9449E+03  1.9848E+03  0.0000E+00
 averages  1.3658E+04  0.0000E+00  1.5695E+04 -4.6695E+04 -9.1075E+02  6.3301E+04  0.0000E+00  0.0000E+00  0.0000E+00
           2.6798E+04  0.0000E+00  0.0000E+00  0.0000E+00  9.0000E+01  9.0000E+01  9.0000E+01  0.0000E+00  8.0840E-02
 ------------------------------------------------------------------------------------------------------------------------
   398900  7.2166E+03  3.0309E+02  5.5987E+03 -1.7304E+03  4.5642E+02  2.9098E+03  1.8828E+03  2.0801E+03  0.0000E+00
 199.450p  1.5577E+04  0.0000E+00  1.1099E+04 -4.6004E+04 -9.5830E+02  5.8061E+04  0.0000E+00  0.0000E+00  0.0000E+00
   2.838h  2.6798E+04  0.0000E+00  0.0000E+00  0.0000E+00  9.0000E+01  9.0000E+01  9.0000E+01  0.0000E+00  1.0834E+00

  rolling  7.2165E+03  2.9732E+02  5.4842E+03 -1.7001E+03  4.2358E+02  2.8289E+03  1.9471E+03  1.9847E+03  0.0000E+00
 averages  1.3735E+04  0.0000E+00  1.5498E+04 -4.6693E+04 -9.1436E+02  6.3105E+04  0.0000E+00  0.0000E+00  0.0000E+00
           2.6798E+04  0.0000E+00  0.0000E+00  0.0000E+00  9.0000E+01  9.0000E+01  9.0000E+01  0.0000E+00  1.2285E-01
 ------------------------------------------------------------------------------------------------------------------------
   399000  7.2179E+03  2.9827E+02  5.6684E+03 -1.7480E+03  4.6865E+02  2.9013E+03  2.0202E+03  2.0263E+03  0.0000E+00
 199.500p  1.1409E+04  0.0000E+00  2.3157E+04 -4.5868E+04 -9.6689E+02  6.9993E+04  0.0000E+00  0.0000E+00  0.0000E+00
   2.840h  2.6798E+04  0.0000E+00  0.0000E+00  0.0000E+00  9.0000E+01  9.0000E+01  9.0000E+01  0.0000E+00 -1.4281E+00

  rolling  7.2165E+03  2.9760E+02  5.4950E+03 -1.7027E+03  4.2783E+02  2.8312E+03  1.9557E+03  1.9830E+03  0.0000E+00
 averages  1.3662E+04  0.0000E+00  1.5789E+04 -4.6659E+04 -9.2008E+02  6.3368E+04  0.0000E+00  0.0000E+00  0.0000E+00
           2.6798E+04  0.0000E+00  0.0000E+00  0.0000E+00  9.0000E+01  9.0000E+01  9.0000E+01  0.0000E+00  6.6544E-02
 ------------------------------------------------------------------------------------------------------------------------
   399100  7.2179E+03  2.9909E+02  5.5469E+03 -1.6890E+03  4.7703E+02  2.7686E+03  2.0137E+03  1.9766E+03  0.0000E+00
 199.550p  1.4585E+04  0.0000E+00  1.3377E+04 -4.6529E+04 -9.8306E+02  6.0889E+04  0.0000E+00  0.0000E+00  0.0000E+00
   2.841h  2.6798E+04  0.0000E+00  0.0000E+00  0.0000E+00  9.0000E+01  9.0000E+01  9.0000E+01  0.0000E+00  5.7462E-01

  rolling  7.2166E+03  2.9813E+02  5.5037E+03 -1.7069E+03  4.3396E+02  2.8325E+03  1.9626E+03  1.9816E+03  0.0000E+00
 averages  1.3727E+04  0.0000E+00  1.5692E+04 -4.6582E+04 -9.2754E+02  6.3202E+04  0.0000E+00  0.0000E+00  0.0000E+00
           2.6798E+04  0.0000E+00  0.0000E+00  0.0000E+00  9.0000E+01  9.0000E+01  9.0000E+01  0.0000E+00  9.2257E-02
 ------------------------------------------------------------------------------------------------------------------------
   399200  7.2173E+03  2.9512E+02  5.5521E+03 -1.7871E+03  4.7507E+02  2.9101E+03  1.9686E+03  1.9854E+03  0.0000E+00
 199.600p  1.2775E+04  0.0000E+00  1.8284E+04 -4.5146E+04 -1.0046E+03  6.4434E+04  0.0000E+00  0.0000E+00  0.0000E+00
   2.843h  2.6798E+04  0.0000E+00  0.0000E+00  0.0000E+00  9.0000E+01  9.0000E+01  9.0000E+01  0.0000E+00 -4.6939E-01

  rolling  7.2167E+03  2.9832E+02  5.5213E+03 -1.7081E+03  4.4154E+02  2.8361E+03  1.9695E+03  1.9823E+03  0.0000E+00
 averages  1.3687E+04  0.0000E+00  1.5889E+04 -4.6515E+04 -9.3801E+02  6.3342E+04  0.0000E+00  0.0000E+00  0.0000E+00
           2.6798E+04  0.0000E+00  0.0000E+00  0.0000E+00  9.0000E+01  9.0000E+01  9.0000E+01  0.0000E+00  5.4087E-02
 ------------------------------------------------------------------------------------------------------------------------
 ------------------------------------------------------------------------------------------------------------------------

     step     eng_tot    temp_tot     eng_cfg     eng_vdw     eng_cou     eng_bnd     eng_ang     eng_dih     eng_tet
 time          eng_pv    temp_rot     vir_cfg     vir_vdw     vir_cou     vir_bnd     vir_ang     vir_con     vir_tet
 cpu time      volume    temp_shl     eng_shl     vir_shl       alpha        beta       gamma     vir_pmf       press

 ------------------------------------------------------------------------------------------------------------------------
   399300  7.2164E+03  2.9876E+02  5.3774E+03 -1.6874E+03  4.7384E+02  2.7328E+03  1.9685E+03  1.8896E+03  0.0000E+00
 199.650p  1.3977E+04  0.0000E+00  1.4648E+04 -4.6384E+04 -1.0143E+03  6.2047E+04  0.0000E+00  0.0000E+00  0.0000E+00
   2.844h  2.6798E+04  0.0000E+00  0.0000E+00  0.0000E+00  9.0000E+01  9.0000E+01  9.0000E+01  0.0000E+00  3.1202E-01

  rolling  7.2167E+03  2.9863E+02  5.5313E+03 -1.7132E+03  4.4917E+02  2.8373E+03  1.9738E+03  1.9842E+03  0.0000E+00
 averages  1.3672E+04  0.0000E+00  1.6005E+04 -4.6366E+04 -9.5053E+02  6.3322E+04  0.0000E+00  0.0000E+00  0.0000E+00
           2.6798E+04  0.0000E+00  0.0000E+00  0.0000E+00  9.0000E+01  9.0000E+01  9.0000E+01  0.0000E+00  3.3898E-02
 ------------------------------------------------------------------------------------------------------------------------
   399400  7.2168E+03  2.9200E+02  5.5168E+03 -1.7583E+03  4.6951E+02  2.8039E+03  2.0184E+03  1.9834E+03  0.0000E+00
 199.700p  1.2720E+04  0.0000E+00  1.7921E+04 -4.5673E+04 -1.0241E+03  6.4617E+04  0.0000E+00  0.0000E+00  0.0000E+00
   2.845h  2.6798E+04  0.0000E+00  0.0000E+00  0.0000E+00  9.0000E+01  9.0000E+01  9.0000E+01  0.0000E+00 -4.2972E-01

  rolling  7.2168E+03  2.9888E+02  5.5351E+03 -1.7207E+03  4.5653E+02  2.8396E+03  1.9767E+03  1.9830E+03  0.0000E+00
 averages  1.3656E+04  0.0000E+00  1.6100E+04 -4.6191E+04 -9.6488E+02  6.3256E+04  0.0000E+00  0.0000E+00  0.0000E+00
           2.6798E+04  0.0000E+00  0.0000E+00  0.0000E+00  9.0000E+01  9.0000E+01  9.0000E+01  0.0000E+00  1.7354E-02
 ------------------------------------------------------------------------------------------------------------------------
   399500  7.2158E+03  2.9788E+02  5.3568E+03 -1.7250E+03  4.8089E+02  2.7251E+03  1.9513E+03  1.9246E+03  0.0000E+00
 199.750p  1.5956E+04  0.0000E+00  8.5299E+03 -4.6134E+04 -1.0419E+03  5.5706E+04  0.0000E+00  0.0000E+00  0.0000E+00
   2.847h  2.6798E+04  0.0000E+00  0.0000E+00  0.0000E+00  9.0000E+01  9.0000E+01  9.0000E+01  0.0000E+00  1.5494E+00

  rolling  7.2169E+03  2.9882E+02  5.5360E+03 -1.7268E+03  4.6351E+02  2.8396E+03  1.9790E+03  1.9807E+03  0.0000E+00
 averages  1.3558E+04  0.0000E+00  1.6389E+04 -4.6071E+04 -9.7952E+02  6.3440E+04  0.0000E+00  0.0000E+00  0.0000E+00
           2.6798E+04  0.0000E+00  0.0000E+00  0.0000E+00  9.0000E+01  9.0000E+01  9.0000E+01  0.0000E+00 -4.2193E-02
 ------------------------------------------------------------------------------------------------------------------------
   399600  7.2161E+03  2.9596E+02  5.4613E+03 -1.7392E+03  4.5781E+02  2.7815E+03  1.9961E+03  1.9650E+03  0.0000E+00
 199.800p  1.1282E+04  0.0000E+00  2.2606E+04 -4.6167E+04 -1.0076E+03  6.9780E+04  0.0000E+00  0.0000E+00  0.0000E+00
   2.848h  2.6798E+04  0.0000E+00  0.0000E+00  0.0000E+00  9.0000E+01  9.0000E+01  9.0000E+01  0.0000E+00 -1.3412E+00

  rolling  7.2169E+03  2.9841E+02  5.5355E+03 -1.7258E+03  4.6869E+02  2.8339E+03  1.9799E+03  1.9788E+03  0.0000E+00
 averages  1.3613E+04  0.0000E+00  1.6167E+04 -4.6080E+04 -9.9024E+02  6.3237E+04  0.0000E+00  0.0000E+00  0.0000E+00
           2.6798E+04  0.0000E+00  0.0000E+00  0.0000E+00  9.0000E+01  9.0000E+01  9.0000E+01  0.0000E+00 -1.5018E-03
 ------------------------------------------------------------------------------------------------------------------------
   399700  7.2159E+03  3.0194E+02  5.3863E+03 -1.7338E+03  4.7371E+02  2.7799E+03  1.9034E+03  1.9630E+03  0.0000E+00
 199.850p  1.4623E+04  0.0000E+00  1.3168E+04 -4.6090E+04 -1.0017E+03  6.0260E+04  0.0000E+00  0.0000E+00  0.0000E+00
   2.850h  2.6798E+04  0.0000E+00  0.0000E+00  0.0000E+00  9.0000E+01  9.0000E+01  9.0000E+01  0.0000E+00  6.4884E-01

  rolling  7.2169E+03  2.9801E+02  5.5295E+03 -1.7285E+03  4.7162E+02  2.8286E+03  1.9807E+03  1.9771E+03  0.0000E+00
 averages  1.3529E+04  0.0000E+00  1.6346E+04 -4.6055E+04 -9.9645E+02  6.3397E+04  0.0000E+00  0.0000E+00  0.0000E+00
           2.6798E+04  0.0000E+00  0.0000E+00  0.0000E+00  9.0000E+01  9.0000E+01  9.0000E+01  0.0000E+00 -4.2334E-02
 ------------------------------------------------------------------------------------------------------------------------
   399800  7.2164E+03  3.0206E+02  5.4792E+03 -1.7697E+03  4.7884E+02  2.9011E+03  1.8998E+03  1.9692E+03  0.0000E+00
 199.900p  1.4813E+04  0.0000E+00  1.2890E+04 -4.5380E+04 -1.0137E+03  5.9285E+04  0.0000E+00  0.0000E+00  0.0000E+00
   2.851h  2.6798E+04  0.0000E+00  0.0000E+00  0.0000E+00  9.0000E+01  9.0000E+01  9.0000E+01  0.0000E+00  7.0670E-01

  rolling  7.2169E+03  2.9765E+02  5.5223E+03 -1.7296E+03  4.7407E+02  2.8214E+03  1.9821E+03  1.9744E+03  0.0000E+00
 averages  1.3580E+04  0.0000E+00  1.6124E+04 -4.6041E+04 -1.0017E+03  6.3166E+04  0.0000E+00  0.0000E+00  0.0000E+00
           2.6798E+04  0.0000E+00  0.0000E+00  0.0000E+00  9.0000E+01  9.0000E+01  9.0000E+01  0.0000E+00 -1.1800E-03
 ------------------------------------------------------------------------------------------------------------------------
   399900  7.2161E+03  3.0174E+02  5.5509E+03 -1.7708E+03  4.6719E+02  2.8768E+03  1.8930E+03  2.0847E+03  0.0000E+00
 199.950p  1.0782E+04  0.0000E+00  2.5157E+04 -4.5452E+04 -1.0017E+03  7.1611E+04  0.0000E+00  0.0000E+00  0.0000E+00
   2.852h  2.6798E+04  0.0000E+00  0.0000E+00  0.0000E+00  9.0000E+01  9.0000E+01  9.0000E+01  0.0000E+00 -1.7973E+00

  rolling  7.2168E+03  2.9741E+02  5.5168E+03 -1.7331E+03  4.7536E+02  2.8210E+03  1.9794E+03  1.9740E+03  0.0000E+00
 averages  1.3491E+04  0.0000E+00  1.6340E+04 -4.5996E+04 -1.0066E+03  6.3342E+04  0.0000E+00  0.0000E+00  0.0000E+00
           2.6798E+04  0.0000E+00  0.0000E+00  0.0000E+00  9.0000E+01  9.0000E+01  9.0000E+01  0.0000E+00 -4.7748E-02
 ------------------------------------------------------------------------------------------------------------------------
   400000  7.2166E+03  3.0034E+02  5.6021E+03 -1.6979E+03  4.6909E+02  2.8842E+03  1.9569E+03  1.9899E+03  0.0000E+00
 200.000p  1.7054E+04  0.0000E+00  6.3043E+03 -4.6365E+04 -9.9648E+02  5.3665E+04  0.0000E+00  0.0000E+00  0.0000E+00
   2.854h  2.6798E+04  0.0000E+00  0.0000E+00  0.0000E+00  9.0000E+01  9.0000E+01  9.0000E+01  0.0000E+00  2.0303E+00

  rolling  7.2167E+03  2.9744E+02  5.5113E+03 -1.7348E+03  4.7526E+02  2.8220E+03  1.9723E+03  1.9765E+03  0.0000E+00
 averages  1.3551E+04  0.0000E+00  1.6150E+04 -4.5970E+04 -1.0103E+03  6.3130E+04  0.0000E+00  0.0000E+00  0.0000E+00
           2.6798E+04  0.0000E+00  0.0000E+00  0.0000E+00  9.0000E+01  9.0000E+01  9.0000E+01  0.0000E+00 -8.6838E-03
 ------------------------------------------------------------------------------------------------------------------------


 run terminating. elapsed cpu time =   1.02735E+04, job time = *******d, close time = 1000.00s



 run terminated after  400000 steps. final averages calculated over  400000 steps.


 ------------------------------------------------------------------------------------------------------------------------

     step     eng_tot    temp_tot     eng_cfg     eng_vdw     eng_cou     eng_bnd     eng_ang     eng_dih     eng_tet
 time          eng_pv    temp_rot     vir_cfg     vir_vdw     vir_cou     vir_bnd     vir_ang     vir_con     vir_tet
 cpu time      volume    temp_shl     eng_shl     vir_shl       alpha        beta       gamma     vir_pmf       press

 ------------------------------------------------------------------------------------------------------------------------
   400000  7.1989E+03  2.9801E+02  5.2435E+03 -1.3973E+03  5.4222E+02  2.4608E+03  1.7480E+03  1.8898E+03  0.0000E+00
 200.000p  1.6662E+04  0.0000E+00  6.0905E+03 -5.1607E+04 -9.5721E+02  5.8655E+04  0.0000E+00  0.0000E+00  0.0000E+00
   2.854h  2.6798E+04  0.0000E+00  0.0000E+00  0.0000E+00  9.0000E+01  9.0000E+01  9.0000E+01  0.0000E+00  2.0481E+00

  r.m.s.   1.8290E+01  2.7779E+01  6.3093E+02  2.6928E+02  6.6491E+01  3.3780E+02  2.1827E+02  1.9802E+02  0.0000E+00
 fluctn.   3.7672E+03  0.0000E+00  9.6036E+03  4.4755E+03  6.0240E+01  6.3045E+03  0.0000E+00  0.0000E+00  0.0000E+00
           2.7910E-10  0.0000E+00  0.0000E+00  0.0000E+00  2.2155E-13  2.2155E-13  2.2155E-13  0.0000E+00  2.0293E+00
 ------------------------------------------------------------------------------------------------------------------------


            Approximate 3D Diffusion  coefficients (10^-9 m^2 / s)

            atom        D 
            CA         1.8733E+00
            HA         1.8830E+00


                Average pressure tensor                                       r.m.s. fluctuations 

           2.0019E+00  9.0050E-03 -3.9008E-03                          2.2946E+00  9.9871E-01  9.4003E-01
           9.0050E-03  2.0004E+00  1.9510E-03                          9.9871E-01  2.3140E+00  9.4869E-01
          -3.9008E-03  1.9510E-03  2.1421E+00                          9.4003E-01  9.4869E-01  2.3406E+00

            trace/3.   2.0481E+00


 sample of final configuration

      i       x(i)        y(i)        z(i)       vx(i)       vy(i)       vz(i)       fx(i)       fy(i)       fz(i)


      1 -1.1171E+01  4.6473E+00 -5.7215E+00 -3.2197E+00 -3.0056E+00  2.0422E+00 -1.5284E+04  1.4232E+03 -1.1072E+04
    110  1.4340E+01  8.2986E+00  1.3030E+00  1.3310E+01 -1.3447E+00 -2.3751E+01 -1.7996E+03 -6.0283E+03  1.3673E+04
    219  1.3257E+00  9.0206E+00 -3.5501E+00  5.2084E+00 -8.2175E+00  3.1092E+00 -1.5824E+04  2.2668E+04 -1.0541E+04
    328 -1.4073E+01  2.3642E+00 -9.5790E+00 -3.8145E+01 -1.8402E+01  2.0919E+01  1.7467E+03 -1.0657E+04  1.7331E+04
    437 -1.0148E+01  1.3637E+01 -3.9854E+00 -6.2658E+00  2.2052E+00 -2.5020E-01 -1.4813E+03  1.2586E+04  1.2322E+04
    546 -1.0652E+01  2.1826E+00  7.1405E+00 -2.3458E+00  1.4396E+01  3.9770E+00 -1.3714E+03  8.1781E+03  8.9873E+03
    655  1.0012E+01  1.3487E+01  1.6863E+00  7.7948E+00  9.0416E-01 -4.2522E+00  1.3608E+04 -9.4753E+03 -1.5538E+04
    764 -1.2864E+00 -1.3216E-01 -6.8963E+00 -1.4079E+00  1.1813E+01 -2.5481E+01  3.0627E+03 -1.9384E+03  7.2788E+03
    873 -1.6271E+00 -4.4649E+00  4.2277E+00 -6.8930E+00 -8.9662E+00  9.2855E+00 -1.2861E+03  4.2196E+03  7.6160E+02
    982 -1.4531E+01  9.4565E+00 -1.4909E+01 -2.4446E+01 -9.0191E+00 -1.5709E+01 -2.3904E+03  5.9400E+03 -4.6011E+03
   1091  3.9544E+00 -8.3300E-01  4.1351E+00  3.5706E+00  7.3404E+00  3.6240E-01 -5.3301E+03 -4.1243E+03 -2.3329E+04
   1200  7.6276E+00 -1.2783E+01 -8.6503E+00  1.7631E+01  1.6949E+01  1.1323E+01 -9.1071E+03  2.0025E+04  8.7617E+03
   1309 -9.9809E-01 -1.1631E+01  1.4826E+01 -2.1998E+00 -6.1246E-01 -1.8155E+00 -1.8751E+03 -3.3948E+03 -6.4554E+03
   1418  9.1841E-01  1.5352E+00 -1.1942E+01  1.1144E+01  6.4676E+00  5.8586E+00  5.5929E+03  8.4420E+03 -3.0087E+03
   1527 -2.8443E+00  1.1135E+01  8.0518E+00 -1.9648E+00 -2.6643E+00  6.9439E+00 -1.0859E+02 -2.6191E+02  7.1202E+03
   1636  1.0784E+01 -1.4122E+01  1.2577E+01  4.2139E+00  2.6486E+01 -2.8911E+01 -1.4129E+02  3.9341E+02 -1.0854E+03
   1745  1.5478E+00 -1.0368E+01  1.6042E-01  5.3318E+00 -2.1399E+00  3.5103E+00  4.3464E+03  2.7701E+03  2.2154E+04
   1854 -1.2014E+01 -8.2566E+00 -5.3705E+00 -2.0320E+01  1.7928E+01 -2.4910E+01 -1.5326E+04  1.8683E+03  8.7751E+02
   1963  1.3513E+01  4.2636E-02 -2.2946E+00 -4.6116E+00 -1.5176E+00 -1.2831E+00  1.3526E+04 -1.7099E+03 -8.0575E+03
   2072  1.4428E+01  8.1642E+00 -1.1374E+01 -4.8697E+00 -7.0657E+00 -3.6423E-01  3.0711E+03 -3.9593E+03 -1.5408E+03

 time elapsed since job start =       10273.548 seconds

