
                    DL_POLY Classic 1.9

                              Running on    1 nodes


 ************************************************************************************************************************
 ************************************************************************************************************************
 ************************************************************************************************************************
 ***************     DL_POLY CONTROL file                                                                 ***************
 ************************************************************************************************************************
 ************************************************************************************************************************
 ************************************************************************************************************************


 SIMULATION CONTROL PARAMETERS


 simulation temperature           3.0000E+02

 Nose-Hoover 
 thermostat relaxation time       1.0000E-01

 simulation timestep              1.0000E-04

 selected number of timesteps        50000

 real space cut off               1.0000E+01

 real space cut off (vdw)         1.0000E+01

 border width of Verlet shell     5.0000E-01


 Electrostatics : Shifted Coulombic potential

 data printing interval                100

 data stacking interval                100

 statistics file interval              100

 user allocated job time (d)    ********

 job closure time        (s)    1000.000


SYSTEM SPECIFICATION

 energy units=kjoule/mol 


 number of molecular types               1

 molecular species type                  1


 name of species:             Unnamed001                              

 number of molecules                   200

 number of atoms/sites                  20


 atomic characteristics:

                      site     name          mass        charge    repeat    freeze

                         1     CT          12.01100    -0.12000         1         0
                         2     CT          12.01100    -0.18000         1         0
                         3     HC           1.00800     0.06000         1         0
                         4     CT          12.01100    -0.12000         1         0
                         5     HC           1.00800     0.06000         1         0
                         6     HC           1.00800     0.06000         1         0
                         7     HC           1.00800     0.06000         1         0
                         8     HC           1.00800     0.06000         1         0
                         9     HC           1.00800     0.06000         1         0
                        10     HC           1.00800     0.06000         1         0
                        11     CT          12.01100    -0.12000         1         0
                        12     CT          12.01100    -0.18000         1         0
                        13     HC           1.00800     0.06000         1         0
                        14     CT          12.01100    -0.12000         1         0
                        15     HC           1.00800     0.06000         1         0
                        16     HC           1.00800     0.06000         1         0
                        17     HC           1.00800     0.06000         1         0
                        18     HC           1.00800     0.06000         1         0
                        19     HC           1.00800     0.06000         1         0
                        20     HC           1.00800     0.06000         1         0

 number of chemical bonds               19


 chemical bond details:

                            key     index     index                            parameters

                           harm         1         2     2.242624E+03   1.529000E+00   0.000000E+00   0.000000E+00
                           harm         1         3     2.845120E+03   1.090000E+00   0.000000E+00   0.000000E+00
                           harm         1         4     2.242624E+03   1.529000E+00   0.000000E+00   0.000000E+00
                           harm         1         5     2.845120E+03   1.090000E+00   0.000000E+00   0.000000E+00
                           harm         2         6     2.845120E+03   1.090000E+00   0.000000E+00   0.000000E+00
                           harm         2         7     2.845120E+03   1.090000E+00   0.000000E+00   0.000000E+00
                           harm         2         8     2.845120E+03   1.090000E+00   0.000000E+00   0.000000E+00
                           harm         4         9     2.845120E+03   1.090000E+00   0.000000E+00   0.000000E+00
                           harm         4        10     2.845120E+03   1.090000E+00   0.000000E+00   0.000000E+00
                           harm         4        14     2.242624E+03   1.529000E+00   0.000000E+00   0.000000E+00
                           harm        11        12     2.242624E+03   1.529000E+00   0.000000E+00   0.000000E+00
                           harm        11        13     2.845120E+03   1.090000E+00   0.000000E+00   0.000000E+00
                           harm        11        14     2.242624E+03   1.529000E+00   0.000000E+00   0.000000E+00
                           harm        11        15     2.845120E+03   1.090000E+00   0.000000E+00   0.000000E+00
                           harm        12        16     2.845120E+03   1.090000E+00   0.000000E+00   0.000000E+00
                           harm        12        17     2.845120E+03   1.090000E+00   0.000000E+00   0.000000E+00
                           harm        12        18     2.845120E+03   1.090000E+00   0.000000E+00   0.000000E+00
                           harm        14        19     2.845120E+03   1.090000E+00   0.000000E+00   0.000000E+00
                           harm        14        20     2.845120E+03   1.090000E+00   0.000000E+00   0.000000E+00

 number of bond angles                  36


 bond angle details:

                            key     index     index     index     f-const       angle

                           harm         2         1         3  3.1380E+02  110.700000    0.000000    0.000000    0.000000    0.000000
                           harm         2         1         4  4.8827E+02  112.700000    0.000000    0.000000    0.000000    0.000000
                           harm         2         1         5  3.1380E+02  110.700000    0.000000    0.000000    0.000000    0.000000
                           harm         3         1         4  3.1380E+02  110.700000    0.000000    0.000000    0.000000    0.000000
                           harm         3         1         5  2.7614E+02  107.800000    0.000000    0.000000    0.000000    0.000000
                           harm         4         1         5  3.1380E+02  110.700000    0.000000    0.000000    0.000000    0.000000
                           harm         1         2         6  3.1380E+02  110.700000    0.000000    0.000000    0.000000    0.000000
                           harm         1         2         7  3.1380E+02  110.700000    0.000000    0.000000    0.000000    0.000000
                           harm         1         2         8  3.1380E+02  110.700000    0.000000    0.000000    0.000000    0.000000
                           harm         6         2         7  2.7614E+02  107.800000    0.000000    0.000000    0.000000    0.000000
                           harm         6         2         8  2.7614E+02  107.800000    0.000000    0.000000    0.000000    0.000000
                           harm         7         2         8  2.7614E+02  107.800000    0.000000    0.000000    0.000000    0.000000
                           harm         1         4         9  3.1380E+02  110.700000    0.000000    0.000000    0.000000    0.000000
                           harm         1         4        10  3.1380E+02  110.700000    0.000000    0.000000    0.000000    0.000000
                           harm         1         4        14  4.8827E+02  112.700000    0.000000    0.000000    0.000000    0.000000
                           harm         9         4        10  2.7614E+02  107.800000    0.000000    0.000000    0.000000    0.000000
                           harm         9         4        14  3.1380E+02  110.700000    0.000000    0.000000    0.000000    0.000000
                           harm        10         4        14  3.1380E+02  110.700000    0.000000    0.000000    0.000000    0.000000
                           harm        12        11        13  3.1380E+02  110.700000    0.000000    0.000000    0.000000    0.000000
                           harm        12        11        14  4.8827E+02  112.700000    0.000000    0.000000    0.000000    0.000000
                           harm        12        11        15  3.1380E+02  110.700000    0.000000    0.000000    0.000000    0.000000
                           harm        13        11        14  3.1380E+02  110.700000    0.000000    0.000000    0.000000    0.000000
                           harm        13        11        15  2.7614E+02  107.800000    0.000000    0.000000    0.000000    0.000000
                           harm        14        11        15  3.1380E+02  110.700000    0.000000    0.000000    0.000000    0.000000
                           harm        11        12        16  3.1380E+02  110.700000    0.000000    0.000000    0.000000    0.000000
                           harm        11        12        17  3.1380E+02  110.700000    0.000000    0.000000    0.000000    0.000000
                           harm        11        12        18  3.1380E+02  110.700000    0.000000    0.000000    0.000000    0.000000
                           harm        16        12        17  2.7614E+02  107.800000    0.000000    0.000000    0.000000    0.000000
                           harm        16        12        18  2.7614E+02  107.800000    0.000000    0.000000    0.000000    0.000000
                           harm        17        12        18  2.7614E+02  107.800000    0.000000    0.000000    0.000000    0.000000
                           harm         4        14        11  4.8827E+02  112.700000    0.000000    0.000000    0.000000    0.000000
                           harm         4        14        19  3.1380E+02  110.700000    0.000000    0.000000    0.000000    0.000000
                           harm         4        14        20  3.1380E+02  110.700000    0.000000    0.000000    0.000000    0.000000
                           harm        11        14        19  3.1380E+02  110.700000    0.000000    0.000000    0.000000    0.000000
                           harm        11        14        20  3.1380E+02  110.700000    0.000000    0.000000    0.000000    0.000000
                           harm        19        14        20  2.7614E+02  107.800000    0.000000    0.000000    0.000000    0.000000

 number of dihedral angles              45


 dihedral angle details:

                            key     index     index     index     index     f-const       angle        trig    1-4 elec     1-4 vdw

                           cos3         3         1         2         6  0.0000E+00    0.000000    1.255200    0.500000    0.500000
                           cos3         3         1         2         7  0.0000E+00    0.000000    1.255200    0.500000    0.500000
                           cos3         3         1         2         8  0.0000E+00    0.000000    1.255200    0.500000    0.500000
                           cos3         4         1         2         6  0.0000E+00    0.000000    1.255200    0.500000    0.500000
                           cos3         4         1         2         7  0.0000E+00    0.000000    1.255200    0.500000    0.500000
                           cos3         4         1         2         8  0.0000E+00    0.000000    1.255200    0.500000    0.500000
                           cos3         5         1         2         6  0.0000E+00    0.000000    1.255200    0.500000    0.500000
                           cos3         5         1         2         7  0.0000E+00    0.000000    1.255200    0.500000    0.500000
                           cos3         5         1         2         8  0.0000E+00    0.000000    1.255200    0.500000    0.500000
                           cos3         2         1         4         9  0.0000E+00    0.000000    1.255200    0.500000    0.500000
                           cos3         2         1         4        10  0.0000E+00    0.000000    1.255200    0.500000    0.500000
                           cos3         2         1         4        14  5.4392E+00   -0.209200    0.836800    0.500000    0.500000
                           cos3         3         1         4         9  0.0000E+00    0.000000    1.255200    0.500000    0.500000
                           cos3         3         1         4        10  0.0000E+00    0.000000    1.255200    0.500000    0.500000
                           cos3         3         1         4        14  0.0000E+00    0.000000    1.255200    0.500000    0.500000
                           cos3         5         1         4         9  0.0000E+00    0.000000    1.255200    0.500000    0.500000
                           cos3         5         1         4        10  0.0000E+00    0.000000    1.255200    0.500000    0.500000
                           cos3         5         1         4        14  0.0000E+00    0.000000    1.255200    0.500000    0.500000
                           cos3         1         4        14        11  5.4392E+00   -0.209200    0.836800    0.500000    0.500000
                           cos3         1         4        14        19  0.0000E+00    0.000000    1.255200    0.500000    0.500000
                           cos3         1         4        14        20  0.0000E+00    0.000000    1.255200    0.500000    0.500000
                           cos3         9         4        14        11  0.0000E+00    0.000000    1.255200    0.500000    0.500000
                           cos3         9         4        14        19  0.0000E+00    0.000000    1.255200    0.500000    0.500000
                           cos3         9         4        14        20  0.0000E+00    0.000000    1.255200    0.500000    0.500000
                           cos3        10         4        14        11  0.0000E+00    0.000000    1.255200    0.500000    0.500000
                           cos3        10         4        14        19  0.0000E+00    0.000000    1.255200    0.500000    0.500000
                           cos3        10         4        14        20  0.0000E+00    0.000000    1.255200    0.500000    0.500000
                           cos3        13        11        12        16  0.0000E+00    0.000000    1.255200    0.500000    0.500000
                           cos3        13        11        12        17  0.0000E+00    0.000000    1.255200    0.500000    0.500000
                           cos3        13        11        12        18  0.0000E+00    0.000000    1.255200    0.500000    0.500000
                           cos3        14        11        12        16  0.0000E+00    0.000000    1.255200    0.500000    0.500000
                           cos3        14        11        12        17  0.0000E+00    0.000000    1.255200    0.500000    0.500000
                           cos3        14        11        12        18  0.0000E+00    0.000000    1.255200    0.500000    0.500000
                           cos3        15        11        12        16  0.0000E+00    0.000000    1.255200    0.500000    0.500000
                           cos3        15        11        12        17  0.0000E+00    0.000000    1.255200    0.500000    0.500000
                           cos3        15        11        12        18  0.0000E+00    0.000000    1.255200    0.500000    0.500000
                           cos3        12        11        14         4  5.4392E+00   -0.209200    0.836800    0.500000    0.500000
                           cos3        12        11        14        19  0.0000E+00    0.000000    1.255200    0.500000    0.500000
                           cos3        12        11        14        20  0.0000E+00    0.000000    1.255200    0.500000    0.500000
                           cos3        13        11        14         4  0.0000E+00    0.000000    1.255200    0.500000    0.500000
                           cos3        13        11        14        19  0.0000E+00    0.000000    1.255200    0.500000    0.500000
                           cos3        13        11        14        20  0.0000E+00    0.000000    1.255200    0.500000    0.500000
                           cos3        15        11        14         4  0.0000E+00    0.000000    1.255200    0.500000    0.500000
                           cos3        15        11        14        19  0.0000E+00    0.000000    1.255200    0.500000    0.500000
                           cos3        15        11        14        20  0.0000E+00    0.000000    1.255200    0.500000    0.500000


 number of specified pair potentials         3


                atom 1  atom 2      key                              parameters


                CT      CT        lj       2.76144E-01  3.50000E+00
                CT      HC        lj       1.86176E-01  2.95804E+00
                HC      HC        lj       1.25520E-01  2.50000E+00

 configuration file name: 

          Disorder Model                                                                  


 selected image convention               2


 simulation cell vectors


                        30.769065    0.000000    0.000000
                         0.000000   46.153597    0.000000
                         0.000000    0.000000   30.769065


 system volume            43695.2421823    


 total degrees of freedom                     11997.
 rotational degrees of freedom                    0.
 shell pseudo degrees of freedom                  0.


 sample of starting configuration

      i       x(i)        y(i)        z(i)       vx(i)       vy(i)       vz(i)       fx(i)       fy(i)       fz(i)


      1 -9.7371E+00 -6.6722E+00 -2.8453E+00  9.3648E+00 -2.3043E+00 -4.8503E+00  7.6880E+02  5.9998E+03 -3.7311E+03
    201 -6.1087E+00 -1.1539E+01 -5.9305E+00 -2.3325E+00  6.1582E+00 -6.2371E+00 -1.7786E+03 -1.8426E+04 -1.5514E+04
    401  9.1700E+00  4.8046E+00 -1.3278E+01  4.7000E+00 -4.4080E-01  4.1476E+00 -5.9667E+03  1.1216E+03 -7.7378E+03
    601  1.4105E+01  2.9720E+00 -4.4590E+00  5.6906E+00  3.0102E+00  2.6609E+00 -1.6571E+04  6.7612E+03  1.2017E+04
    801  1.0878E+01  1.0190E+01  3.6715E+00  1.0101E+01  9.1415E-01  4.7461E+00  1.1494E+04  9.9534E+03 -2.4664E+03
   1001  8.5364E-01 -9.1572E+00 -7.8701E-01 -2.4151E+00 -1.8915E+00  5.4285E+00 -2.8519E+04  6.8326E+02 -2.8251E+03
   1201 -4.2531E+00  1.6784E+01  1.2755E+01 -1.5027E+00 -7.3481E+00  3.1365E-02 -1.6895E+04 -3.5757E+03 -7.3473E+03
   1401  7.8046E+00  1.1878E+01 -7.4237E+00  1.3630E+00 -8.0610E-01  4.3590E+00 -6.4918E+03 -6.8454E+03  9.9192E+02
   1601 -1.5052E+01 -1.6044E+01  1.9513E+00 -3.3011E+00 -2.5221E+00 -1.6994E+00  9.0925E+00 -1.1677E+04 -9.2432E+02
   1801 -3.2196E+00 -6.0097E+00  5.2594E+00 -7.5336E+00  1.8911E+00  1.7549E+00 -1.5440E+04  8.3327E+02 -8.8298E+03
   2001 -9.8488E+00 -1.4470E+01 -1.0846E+01 -5.1103E+00 -1.3857E+00  8.5811E+00 -1.4119E+04 -3.4988E+03 -3.8039E+03
   2201 -1.5296E+01 -1.7971E+01  5.6658E+00 -2.8076E+00 -1.1989E+01 -7.6751E-02 -8.8333E+03 -1.3729E+04 -7.1618E+03
   2401  8.3324E+00 -7.3033E+00 -4.5016E+00 -1.0422E+00  2.0964E-02  5.3960E-01 -6.4466E+03  6.1255E+03 -4.0969E+03
   2601 -1.0025E+01  8.8532E-01  3.8744E+00  4.8718E+00  7.5517E+00  2.2939E-01  8.1576E+03  3.4545E+03  6.6558E+03
   2801  4.7283E+00 -3.0486E+00  1.2663E+00  2.8704E+00  1.6337E+00  4.2868E+00  1.0343E+04  1.4665E+04  1.0279E+04
   3001  5.9486E+00 -1.0620E+01 -3.5681E+00  6.5239E+00  7.1491E+00 -8.7037E+00  9.3157E+03 -2.1144E+04 -7.0583E+03
   3201  3.7422E+00  3.4205E-01 -1.0794E+01  4.8391E+00 -4.1895E+00 -6.1808E-02 -1.4146E+04 -6.0280E+03  3.2315E+03
   3401  6.8239E+00 -2.1687E-01  5.6846E+00 -9.4898E-01  7.7892E+00 -1.9849E+00 -4.3386E+03 -1.4191E+04  9.6788E+03
   3601  7.6977E+00  1.7136E+01  1.4492E+00  5.0513E+00  3.4860E+00 -5.3662E+00 -2.5624E+03  2.0118E+04 -9.0647E+03
   3801  7.8202E+00 -2.0785E+01 -7.0483E+00 -5.1270E-01  2.3802E+00 -1.3709E+00  5.8033E+03  2.6481E+03  2.2872E+04


long range correction for: vdw energy    -0.346782E+03
                         : vdw pressure  -0.260032E+00

 time elapsed since job start =           0.023 seconds

 ------------------------------------------------------------------------------------------------------------------------

     step     eng_tot    temp_tot     eng_cfg     eng_vdw     eng_cou     eng_bnd     eng_ang     eng_dih     eng_tet
 time          eng_pv    temp_rot     vir_cfg     vir_vdw     vir_cou     vir_bnd     vir_ang     vir_con     vir_tet
 cpu time      volume    temp_shl     eng_shl     vir_shl       alpha        beta       gamma     vir_pmf       press

 ------------------------------------------------------------------------------------------------------------------------
        1  2.2692E+04  3.0059E+02  7.6997E+03 -5.1252E+03  1.3367E+03  3.5419E+03  5.7722E+03  2.1740E+03  0.0000E+00
   0.100f  3.0333E+04  0.0000E+00  7.0603E+03 -2.5687E+04 -1.9313E+03  3.4679E+04  0.0000E+00  0.0000E+00  0.0000E+00
   0.234s  4.3695E+04  0.0000E+00  0.0000E+00  0.0000E+00  9.0000E+01  9.0000E+01  9.0000E+01  0.0000E+00  2.8659E+00

  rolling  2.2692E+04  3.0059E+02  7.6997E+03 -5.1252E+03  1.3367E+03  3.5419E+03  5.7722E+03  2.1740E+03  0.0000E+00
 averages  3.0333E+04  0.0000E+00  7.0603E+03 -2.5687E+04 -1.9313E+03  3.4679E+04  0.0000E+00  0.0000E+00  0.0000E+00
           4.3695E+04  0.0000E+00  0.0000E+00  0.0000E+00  9.0000E+01  9.0000E+01  9.0000E+01  0.0000E+00  2.8659E+00
 ------------------------------------------------------------------------------------------------------------------------
      100  2.2692E+04  2.5515E+02  9.9763E+03 -5.0926E+03  1.3361E+03  4.8906E+03  6.7249E+03  2.1173E+03  0.0000E+00
  10.000f  2.4294E+04  0.0000E+00  2.0674E+04 -2.6141E+04 -1.9285E+03  4.8744E+04  0.0000E+00  0.0000E+00  0.0000E+00
   8.079s  4.3695E+04  0.0000E+00  0.0000E+00  0.0000E+00  9.0000E+01  9.0000E+01  9.0000E+01  0.0000E+00  5.9720E-01

  rolling  2.2692E+04  2.6912E+02  9.2721E+03 -5.1026E+03  1.3359E+03  4.2220E+03  6.6651E+03  2.1517E+03  0.0000E+00
 averages  2.5232E+04  0.0000E+00  1.9233E+04 -2.5994E+04 -1.9293E+03  4.7157E+04  0.0000E+00  0.0000E+00  0.0000E+00
           4.3695E+04  0.0000E+00  0.0000E+00  0.0000E+00  9.0000E+01  9.0000E+01  9.0000E+01  0.0000E+00  9.5159E-01
 ------------------------------------------------------------------------------------------------------------------------
      200  2.2692E+04  2.6928E+02  9.3118E+03 -5.1956E+03  1.3395E+03  4.6748E+03  6.5025E+03  1.9906E+03  0.0000E+00
  20.000f  2.7685E+04  0.0000E+00  1.2032E+04 -2.4667E+04 -1.9287E+03  3.8628E+04  0.0000E+00  0.0000E+00  0.0000E+00
  15.974s  4.3695E+04  0.0000E+00  0.0000E+00  0.0000E+00  9.0000E+01  9.0000E+01  9.0000E+01  0.0000E+00  1.8538E+00

  rolling  2.2692E+04  2.7472E+02  9.0178E+03 -5.1664E+03  1.3363E+03  4.1330E+03  6.6564E+03  2.0585E+03  0.0000E+00
 averages  2.4775E+04  0.0000E+00  2.1238E+04 -2.5133E+04 -1.9272E+03  4.8299E+04  0.0000E+00  0.0000E+00  0.0000E+00
           4.3695E+04  0.0000E+00  0.0000E+00  0.0000E+00  9.0000E+01  9.0000E+01  9.0000E+01  0.0000E+00  7.7078E-01
 ------------------------------------------------------------------------------------------------------------------------
      300  2.2691E+04  2.7184E+02  9.2431E+03 -5.3274E+03  1.3427E+03  4.1348E+03  7.1613E+03  1.9316E+03  0.0000E+00
  30.000f  2.6571E+04  0.0000E+00  1.5805E+04 -2.2764E+04 -1.9309E+03  4.0500E+04  0.0000E+00  0.0000E+00  0.0000E+00
  23.990s  4.3695E+04  0.0000E+00  0.0000E+00  0.0000E+00  9.0000E+01  9.0000E+01  9.0000E+01  0.0000E+00  1.4140E+00

  rolling  2.2692E+04  2.8160E+02  8.7258E+03 -5.2681E+03  1.3417E+03  4.1817E+03  6.5260E+03  1.9446E+03  0.0000E+00
 averages  2.6500E+04  0.0000E+00  1.6900E+04 -2.3620E+04 -1.9305E+03  4.2450E+04  0.0000E+00  0.0000E+00  0.0000E+00
           4.3695E+04  0.0000E+00  0.0000E+00  0.0000E+00  9.0000E+01  9.0000E+01  9.0000E+01  0.0000E+00  1.3989E+00
 ------------------------------------------------------------------------------------------------------------------------
      400  2.2691E+04  2.9299E+02  8.2677E+03 -5.4253E+03  1.3327E+03  3.5942E+03  6.8133E+03  1.9529E+03  0.0000E+00
  40.000f  2.1818E+04  0.0000E+00  3.2413E+04 -2.1481E+04 -1.9234E+03  5.5818E+04  0.0000E+00  0.0000E+00  0.0000E+00
  31.873s  4.3695E+04  0.0000E+00  0.0000E+00  0.0000E+00  9.0000E+01  9.0000E+01  9.0000E+01  0.0000E+00 -3.9842E-01

  rolling  2.2692E+04  2.8215E+02  8.7676E+03 -5.3969E+03  1.3379E+03  4.3252E+03  6.5723E+03  1.9290E+03  0.0000E+00
 averages  2.4982E+04  0.0000E+00  2.1720E+04 -2.1830E+04 -1.9279E+03  4.5478E+04  0.0000E+00  0.0000E+00  0.0000E+00
           4.3695E+04  0.0000E+00  0.0000E+00  0.0000E+00  9.0000E+01  9.0000E+01  9.0000E+01  0.0000E+00  8.0324E-01
 ------------------------------------------------------------------------------------------------------------------------
      500  2.2692E+04  2.7959E+02  9.0319E+03 -5.3647E+03  1.3355E+03  4.4795E+03  6.5773E+03  2.0043E+03  0.0000E+00
  50.000f  1.7881E+04  0.0000E+00  4.3176E+04 -2.2248E+04 -1.9250E+03  6.7349E+04  0.0000E+00  0.0000E+00  0.0000E+00
  39.902s  4.3695E+04  0.0000E+00  0.0000E+00  0.0000E+00  9.0000E+01  9.0000E+01  9.0000E+01  0.0000E+00 -1.9112E+00

  rolling  2.2692E+04  2.8162E+02  8.8821E+03 -5.3834E+03  1.3360E+03  4.4194E+03  6.5335E+03  1.9766E+03  0.0000E+00
 averages  2.3711E+04  0.0000E+00  2.5742E+04 -2.2022E+04 -1.9264E+03  4.9691E+04  0.0000E+00  0.0000E+00  0.0000E+00
           4.3695E+04  0.0000E+00  0.0000E+00  0.0000E+00  9.0000E+01  9.0000E+01  9.0000E+01  0.0000E+00  2.9373E-01
 ------------------------------------------------------------------------------------------------------------------------
      600  2.2692E+04  2.8096E+02  9.0776E+03 -5.4170E+03  1.3372E+03  4.8565E+03  6.2383E+03  2.0626E+03  0.0000E+00
  60.000f  2.2743E+04  0.0000E+00  2.9068E+04 -2.1437E+04 -1.9265E+03  5.2432E+04  0.0000E+00  0.0000E+00  0.0000E+00
  47.796s  4.3695E+04  0.0000E+00  0.0000E+00  0.0000E+00  9.0000E+01  9.0000E+01  9.0000E+01  0.0000E+00 -1.3042E-01

  rolling  2.2692E+04  2.8525E+02  8.8051E+03 -5.4089E+03  1.3401E+03  4.1735E+03  6.6571E+03  2.0433E+03  0.0000E+00
 averages  2.6357E+04  0.0000E+00  1.8478E+04 -2.1558E+04 -1.9299E+03  4.1966E+04  0.0000E+00  0.0000E+00  0.0000E+00
           4.3695E+04  0.0000E+00  0.0000E+00  0.0000E+00  9.0000E+01  9.0000E+01  9.0000E+01  0.0000E+00  1.2471E+00
 ------------------------------------------------------------------------------------------------------------------------
      700  2.2692E+04  2.8312E+02  9.0952E+03 -5.3511E+03  1.3371E+03  4.4699E+03  6.6004E+03  2.0389E+03  0.0000E+00
  70.000f  2.7019E+04  0.0000E+00  1.6831E+04 -2.2372E+04 -1.9261E+03  4.1129E+04  0.0000E+00  0.0000E+00  0.0000E+00
  55.693s  4.3695E+04  0.0000E+00  0.0000E+00  0.0000E+00  9.0000E+01  9.0000E+01  9.0000E+01  0.0000E+00  1.4265E+00

  rolling  2.2692E+04  2.8329E+02  9.0229E+03 -5.3675E+03  1.3394E+03  4.2337E+03  6.7535E+03  2.0638E+03  0.0000E+00
 averages  2.8518E+04  0.0000E+00  1.2160E+04 -2.2120E+04 -1.9277E+03  3.6207E+04  0.0000E+00  0.0000E+00  0.0000E+00
           4.3695E+04  0.0000E+00  0.0000E+00  0.0000E+00  9.0000E+01  9.0000E+01  9.0000E+01  0.0000E+00  2.0126E+00
 ------------------------------------------------------------------------------------------------------------------------
 ------------------------------------------------------------------------------------------------------------------------

     step     eng_tot    temp_tot     eng_cfg     eng_vdw     eng_cou     eng_bnd     eng_ang     eng_dih     eng_tet
 time          eng_pv    temp_rot     vir_cfg     vir_vdw     vir_cou     vir_bnd     vir_ang     vir_con     vir_tet
 cpu time      volume    temp_shl     eng_shl     vir_shl       alpha        beta       gamma     vir_pmf       press

 ------------------------------------------------------------------------------------------------------------------------
      800  2.2691E+04  2.9292E+02  8.7483E+03 -5.3798E+03  1.3404E+03  3.7155E+03  7.0893E+03  1.9829E+03  0.0000E+00
  80.000f  3.1729E+04  0.0000E+00  4.1044E+03 -2.1891E+04 -1.9266E+03  2.7922E+04  0.0000E+00  0.0000E+00  0.0000E+00
   1.062m  4.3695E+04  0.0000E+00  0.0000E+00  0.0000E+00  9.0000E+01  9.0000E+01  9.0000E+01  0.0000E+00  3.1398E+00

  rolling  2.2692E+04  2.8921E+02  8.8624E+03 -5.3909E+03  1.3350E+03  4.2318E+03  6.6813E+03  2.0052E+03  0.0000E+00
 averages  2.5575E+04  0.0000E+00  2.1984E+04 -2.1791E+04 -1.9216E+03  4.5696E+04  0.0000E+00  0.0000E+00  0.0000E+00
           4.3695E+04  0.0000E+00  0.0000E+00  0.0000E+00  9.0000E+01  9.0000E+01  9.0000E+01  0.0000E+00  8.5815E-01
 ------------------------------------------------------------------------------------------------------------------------
      900  2.2691E+04  3.0307E+02  8.3956E+03 -5.4135E+03  1.3423E+03  3.8572E+03  6.7098E+03  1.8999E+03  0.0000E+00
  90.000f  3.4188E+04  0.0000E+00 -1.7977E+03 -2.1572E+04 -1.9327E+03  2.1707E+04  0.0000E+00  0.0000E+00  0.0000E+00
   1.196m  4.3695E+04  0.0000E+00  0.0000E+00  0.0000E+00  9.0000E+01  9.0000E+01  9.0000E+01  0.0000E+00  4.0043E+00

  rolling  2.2692E+04  2.8810E+02  9.0652E+03 -5.3648E+03  1.3381E+03  4.4058E+03  6.7515E+03  1.9346E+03  0.0000E+00
 averages  2.6019E+04  0.0000E+00  2.0984E+04 -2.2174E+04 -1.9231E+03  4.5081E+04  0.0000E+00  0.0000E+00  0.0000E+00
           4.3695E+04  0.0000E+00  0.0000E+00  0.0000E+00  9.0000E+01  9.0000E+01  9.0000E+01  0.0000E+00  9.6940E-01
 ------------------------------------------------------------------------------------------------------------------------
     1000  2.2691E+04  2.9585E+02  8.9203E+03 -5.3860E+03  1.3398E+03  4.4753E+03  6.6366E+03  1.8547E+03  0.0000E+00
 100.000f  2.9554E+04  0.0000E+00  1.1877E+04 -2.1925E+04 -1.9314E+03  3.5733E+04  0.0000E+00  0.0000E+00  0.0000E+00
   1.328m  4.3695E+04  0.0000E+00  0.0000E+00  0.0000E+00  9.0000E+01  9.0000E+01  9.0000E+01  0.0000E+00  2.2046E+00

  rolling  2.2691E+04  2.9445E+02  8.9083E+03 -5.4085E+03  1.3371E+03  4.3053E+03  6.7985E+03  1.8759E+03  0.0000E+00
 averages  2.5789E+04  0.0000E+00  2.2785E+04 -2.1683E+04 -1.9283E+03  4.6396E+04  0.0000E+00  0.0000E+00  0.0000E+00
           4.3695E+04  0.0000E+00  0.0000E+00  0.0000E+00  9.0000E+01  9.0000E+01  9.0000E+01  0.0000E+00  8.2341E-01
 ------------------------------------------------------------------------------------------------------------------------
     1100  2.2692E+04  2.9145E+02  9.3090E+03 -5.3341E+03  1.3404E+03  4.7899E+03  6.6722E+03  1.8406E+03  0.0000E+00
 110.000f  2.5113E+04  0.0000E+00  2.5269E+04 -2.2662E+04 -1.9403E+03  4.9871E+04  0.0000E+00  0.0000E+00  0.0000E+00
   1.462m  4.3695E+04  0.0000E+00  0.0000E+00  0.0000E+00  9.0000E+01  9.0000E+01  9.0000E+01  0.0000E+00  4.7542E-01

  rolling  2.2691E+04  2.9293E+02  9.1508E+03 -5.3276E+03  1.3402E+03  4.3465E+03  6.9401E+03  1.8516E+03  0.0000E+00
 averages  2.5943E+04  0.0000E+00  2.2673E+04 -2.2718E+04 -1.9365E+03  4.7327E+04  0.0000E+00  0.0000E+00  0.0000E+00
           4.3695E+04  0.0000E+00  0.0000E+00  0.0000E+00  9.0000E+01  9.0000E+01  9.0000E+01  0.0000E+00  8.1850E-01
 ------------------------------------------------------------------------------------------------------------------------
     1200  2.2692E+04  2.9457E+02  9.3288E+03 -5.3564E+03  1.3397E+03  4.5850E+03  6.9154E+03  1.8452E+03  0.0000E+00
 120.000f  2.2735E+04  0.0000E+00  3.3239E+04 -2.2461E+04 -1.9468E+03  5.7647E+04  0.0000E+00  0.0000E+00  0.0000E+00
   1.594m  4.3695E+04  0.0000E+00  0.0000E+00  0.0000E+00  9.0000E+01  9.0000E+01  9.0000E+01  0.0000E+00 -4.8206E-01

  rolling  2.2691E+04  2.9493E+02  9.2241E+03 -5.3557E+03  1.3415E+03  4.3669E+03  7.0242E+03  1.8472E+03  0.0000E+00
 averages  2.6320E+04  0.0000E+00  2.2259E+04 -2.2419E+04 -1.9470E+03  4.6625E+04  0.0000E+00  0.0000E+00  0.0000E+00
           4.3695E+04  0.0000E+00  0.0000E+00  0.0000E+00  9.0000E+01  9.0000E+01  9.0000E+01  0.0000E+00  8.9511E-01
 ------------------------------------------------------------------------------------------------------------------------
     1300  2.2691E+04  2.9710E+02  9.3839E+03 -5.3440E+03  1.3386E+03  4.1683E+03  7.3208E+03  1.9001E+03  0.0000E+00
 130.000f  2.2163E+04  0.0000E+00  3.5749E+04 -2.2696E+04 -1.9427E+03  6.0388E+04  0.0000E+00  0.0000E+00  0.0000E+00
   1.728m  4.3695E+04  0.0000E+00  0.0000E+00  0.0000E+00  9.0000E+01  9.0000E+01  9.0000E+01  0.0000E+00 -7.6436E-01

  rolling  2.2692E+04  2.9854E+02  9.2230E+03 -5.3417E+03  1.3419E+03  4.3941E+03  6.9561E+03  1.8725E+03  0.0000E+00
 averages  2.6937E+04  0.0000E+00  2.1306E+04 -2.2670E+04 -1.9487E+03  4.5925E+04  0.0000E+00  0.0000E+00  0.0000E+00
           4.3695E+04  0.0000E+00  0.0000E+00  0.0000E+00  9.0000E+01  9.0000E+01  9.0000E+01  0.0000E+00  1.0593E+00
 ------------------------------------------------------------------------------------------------------------------------
     1400  2.2691E+04  2.9905E+02  9.4705E+03 -5.3409E+03  1.3351E+03  4.3379E+03  7.2417E+03  1.8967E+03  0.0000E+00
 140.000f  2.2750E+04  0.0000E+00  3.4736E+04 -2.2863E+04 -1.9395E+03  5.9539E+04  0.0000E+00  0.0000E+00  0.0000E+00
   1.859m  4.3695E+04  0.0000E+00  0.0000E+00  0.0000E+00  9.0000E+01  9.0000E+01  9.0000E+01  0.0000E+00 -6.1344E-01

  rolling  2.2691E+04  3.0153E+02  9.2562E+03 -5.3251E+03  1.3388E+03  4.5482E+03  6.8048E+03  1.8895E+03  0.0000E+00
 averages  2.6156E+04  0.0000E+00  2.4493E+04 -2.2999E+04 -1.9435E+03  4.9436E+04  0.0000E+00  0.0000E+00  0.0000E+00
           4.3695E+04  0.0000E+00  0.0000E+00  0.0000E+00  9.0000E+01  9.0000E+01  9.0000E+01  0.0000E+00  6.9807E-01
 ------------------------------------------------------------------------------------------------------------------------
     1500  2.2692E+04  2.9608E+02  9.8016E+03 -5.2983E+03  1.3394E+03  4.7092E+03  7.1106E+03  1.9406E+03  0.0000E+00
 150.000f  2.7227E+04  0.0000E+00  2.1560E+04 -2.3451E+04 -1.9463E+03  4.6957E+04  0.0000E+00  0.0000E+00  0.0000E+00
   1.994m  4.3695E+04  0.0000E+00  0.0000E+00  0.0000E+00  9.0000E+01  9.0000E+01  9.0000E+01  0.0000E+00  9.9697E-01

  rolling  2.2691E+04  3.0211E+02  9.4104E+03 -5.3504E+03  1.3374E+03  4.5281E+03  6.9866E+03  1.9086E+03  0.0000E+00
 averages  2.7935E+04  0.0000E+00  1.9765E+04 -2.2724E+04 -1.9434E+03  4.4432E+04  0.0000E+00  0.0000E+00  0.0000E+00
           4.3695E+04  0.0000E+00  0.0000E+00  0.0000E+00  9.0000E+01  9.0000E+01  9.0000E+01  0.0000E+00  1.2965E+00
 ------------------------------------------------------------------------------------------------------------------------
 ------------------------------------------------------------------------------------------------------------------------

     step     eng_tot    temp_tot     eng_cfg     eng_vdw     eng_cou     eng_bnd     eng_ang     eng_dih     eng_tet
 time          eng_pv    temp_rot     vir_cfg     vir_vdw     vir_cou     vir_bnd     vir_ang     vir_con     vir_tet
 cpu time      volume    temp_shl     eng_shl     vir_shl       alpha        beta       gamma     vir_pmf       press

 ------------------------------------------------------------------------------------------------------------------------
     1600  2.2692E+04  3.0711E+02  9.4340E+03 -5.2559E+03  1.3389E+03  4.9282E+03  6.4765E+03  1.9463E+03  0.0000E+00
 160.000f  2.8848E+04  0.0000E+00  1.8341E+04 -2.4235E+04 -1.9447E+03  4.4521E+04  0.0000E+00  0.0000E+00  0.0000E+00
   2.127m  4.3695E+04  0.0000E+00  0.0000E+00  0.0000E+00  9.0000E+01  9.0000E+01  9.0000E+01  0.0000E+00  1.5368E+00

  rolling  2.2691E+04  3.0133E+02  9.6305E+03 -5.2629E+03  1.3408E+03  4.5739E+03  7.0258E+03  1.9528E+03  0.0000E+00
 averages  2.9232E+04  0.0000E+00  1.6341E+04 -2.4037E+04 -1.9472E+03  4.2325E+04  0.0000E+00  0.0000E+00  0.0000E+00
           4.3695E+04  0.0000E+00  0.0000E+00  0.0000E+00  9.0000E+01  9.0000E+01  9.0000E+01  0.0000E+00  1.7149E+00
 ------------------------------------------------------------------------------------------------------------------------
     1700  2.2692E+04  3.0423E+02  9.7561E+03 -5.2411E+03  1.3319E+03  4.6458E+03  7.0469E+03  1.9725E+03  0.0000E+00
 170.000f  3.3095E+04  0.0000E+00  5.8491E+03 -2.4379E+04 -1.9415E+03  3.2170E+04  0.0000E+00  0.0000E+00  0.0000E+00
   2.259m  4.3695E+04  0.0000E+00  0.0000E+00  0.0000E+00  9.0000E+01  9.0000E+01  9.0000E+01  0.0000E+00  3.0627E+00

  rolling  2.2691E+04  3.0402E+02  9.6784E+03 -5.2367E+03  1.3338E+03  4.4592E+03  7.1621E+03  1.9601E+03  0.0000E+00
 averages  2.8456E+04  0.0000E+00  1.9483E+04 -2.4497E+04 -1.9401E+03  4.5920E+04  0.0000E+00  0.0000E+00  0.0000E+00
           4.3695E+04  0.0000E+00  0.0000E+00  0.0000E+00  9.0000E+01  9.0000E+01  9.0000E+01  0.0000E+00  1.3556E+00
 ------------------------------------------------------------------------------------------------------------------------
     1800  2.2691E+04  3.0966E+02  9.6595E+03 -5.2092E+03  1.3397E+03  4.1496E+03  7.3753E+03  2.0043E+03  0.0000E+00
 180.000f  3.6505E+04  0.0000E+00 -3.3150E+03 -2.4726E+04 -1.9510E+03  2.3362E+04  0.0000E+00  0.0000E+00  0.0000E+00
   2.390m  4.3695E+04  0.0000E+00  0.0000E+00  0.0000E+00  9.0000E+01  9.0000E+01  9.0000E+01  0.0000E+00  4.2761E+00

  rolling  2.2692E+04  3.0592E+02  9.7606E+03 -5.2192E+03  1.3315E+03  4.5662E+03  7.0898E+03  1.9922E+03  0.0000E+00
 averages  2.9720E+04  0.0000E+00  1.6411E+04 -2.4640E+04 -1.9421E+03  4.2993E+04  0.0000E+00  0.0000E+00  0.0000E+00
           4.3695E+04  0.0000E+00  0.0000E+00  0.0000E+00  9.0000E+01  9.0000E+01  9.0000E+01  0.0000E+00  1.7633E+00
 ------------------------------------------------------------------------------------------------------------------------
     1900  2.2691E+04  3.1438E+02  9.5935E+03 -5.2558E+03  1.3422E+03  4.2705E+03  7.2123E+03  2.0242E+03  0.0000E+00
 190.000f  3.3592E+04  0.0000E+00  6.4035E+03 -2.4196E+04 -1.9534E+03  3.2553E+04  0.0000E+00  0.0000E+00  0.0000E+00
   2.524m  4.3695E+04  0.0000E+00  0.0000E+00  0.0000E+00  9.0000E+01  9.0000E+01  9.0000E+01  0.0000E+00  3.1200E+00

  rolling  2.2692E+04  3.0826E+02  9.8160E+03 -5.2245E+03  1.3395E+03  4.5721E+03  7.1207E+03  2.0083E+03  0.0000E+00
 averages  3.0409E+04  0.0000E+00  1.5091E+04 -2.4593E+04 -1.9509E+03  4.1635E+04  0.0000E+00  0.0000E+00  0.0000E+00
           4.3695E+04  0.0000E+00  0.0000E+00  0.0000E+00  9.0000E+01  9.0000E+01  9.0000E+01  0.0000E+00  1.9575E+00
 ------------------------------------------------------------------------------------------------------------------------
     2000  2.2692E+04  3.0949E+02  9.9988E+03 -5.2721E+03  1.3326E+03  4.8274E+03  7.0636E+03  2.0473E+03  0.0000E+00
 200.000f  2.5305E+04  0.0000E+00  3.1262E+04 -2.3925E+04 -1.9386E+03  5.7126E+04  0.0000E+00  0.0000E+00  0.0000E+00
   2.656m  4.3695E+04  0.0000E+00  0.0000E+00  0.0000E+00  9.0000E+01  9.0000E+01  9.0000E+01  0.0000E+00 -4.8825E-02

  rolling  2.2691E+04  3.0873E+02  9.9579E+03 -5.2546E+03  1.3368E+03  4.7650E+03  7.0739E+03  2.0368E+03  0.0000E+00
 averages  2.8951E+04  0.0000E+00  2.0009E+04 -2.4185E+04 -1.9463E+03  4.6140E+04  0.0000E+00  0.0000E+00  0.0000E+00
           4.3695E+04  0.0000E+00  0.0000E+00  0.0000E+00  9.0000E+01  9.0000E+01  9.0000E+01  0.0000E+00  1.3485E+00
 ------------------------------------------------------------------------------------------------------------------------
     2100  2.2692E+04  3.0383E+02  1.0433E+04 -5.2178E+03  1.3356E+03  5.2160E+03  7.0753E+03  2.0242E+03  0.0000E+00
 210.000f  2.3420E+04  0.0000E+00  3.6805E+04 -2.4617E+04 -1.9426E+03  6.3364E+04  0.0000E+00  0.0000E+00  0.0000E+00
   2.790m  4.3695E+04  0.0000E+00  0.0000E+00  0.0000E+00  9.0000E+01  9.0000E+01  9.0000E+01  0.0000E+00 -8.1241E-01

  rolling  2.2692E+04  3.1405E+02  9.8491E+03 -5.2606E+03  1.3353E+03  4.5671E+03  7.1689E+03  2.0385E+03  0.0000E+00
 averages  2.7665E+04  0.0000E+00  2.4868E+04 -2.4044E+04 -1.9430E+03  5.0855E+04  0.0000E+00  0.0000E+00  0.0000E+00
           4.3695E+04  0.0000E+00  0.0000E+00  0.0000E+00  9.0000E+01  9.0000E+01  9.0000E+01  0.0000E+00  8.0739E-01
 ------------------------------------------------------------------------------------------------------------------------
     2200  2.2692E+04  3.1943E+02  9.7927E+03 -5.3208E+03  1.3400E+03  4.5602E+03  7.1849E+03  2.0284E+03  0.0000E+00
 220.000f  2.7471E+04  0.0000E+00  2.6624E+04 -2.3069E+04 -1.9405E+03  5.1634E+04  0.0000E+00  0.0000E+00  0.0000E+00
   2.922m  4.3695E+04  0.0000E+00  0.0000E+00  0.0000E+00  9.0000E+01  9.0000E+01  9.0000E+01  0.0000E+00  6.5494E-01

  rolling  2.2692E+04  3.0977E+02  1.0206E+04 -5.2798E+03  1.3417E+03  4.6824E+03  7.4338E+03  2.0283E+03  0.0000E+00
 averages  3.0859E+04  0.0000E+00  1.5290E+04 -2.3690E+04 -1.9459E+03  4.0926E+04  0.0000E+00  0.0000E+00  0.0000E+00
           4.3695E+04  0.0000E+00  0.0000E+00  0.0000E+00  9.0000E+01  9.0000E+01  9.0000E+01  0.0000E+00  1.9515E+00
 ------------------------------------------------------------------------------------------------------------------------
     2300  2.2691E+04  3.2606E+02  9.5881E+03 -5.3483E+03  1.3422E+03  4.2671E+03  7.2811E+03  2.0459E+03  0.0000E+00
 230.000f  2.7059E+04  0.0000E+00  2.8897E+04 -2.2728E+04 -1.9479E+03  5.3573E+04  0.0000E+00  0.0000E+00  0.0000E+00
   3.056m  4.3695E+04  0.0000E+00  0.0000E+00  0.0000E+00  9.0000E+01  9.0000E+01  9.0000E+01  0.0000E+00  4.5350E-01

  rolling  2.2692E+04  3.1614E+02  1.0022E+04 -5.3443E+03  1.3425E+03  4.7283E+03  7.2553E+03  2.0406E+03  0.0000E+00
 averages  2.9368E+04  0.0000E+00  2.0800E+04 -2.2717E+04 -1.9444E+03  4.5461E+04  0.0000E+00  0.0000E+00  0.0000E+00
           4.3695E+04  0.0000E+00  0.0000E+00  0.0000E+00  9.0000E+01  9.0000E+01  9.0000E+01  0.0000E+00  1.3420E+00
 ------------------------------------------------------------------------------------------------------------------------
 ------------------------------------------------------------------------------------------------------------------------

     step     eng_tot    temp_tot     eng_cfg     eng_vdw     eng_cou     eng_bnd     eng_ang     eng_dih     eng_tet
 time          eng_pv    temp_rot     vir_cfg     vir_vdw     vir_cou     vir_bnd     vir_ang     vir_con     vir_tet
 cpu time      volume    temp_shl     eng_shl     vir_shl       alpha        beta       gamma     vir_pmf       press

 ------------------------------------------------------------------------------------------------------------------------
     2400  2.2692E+04  3.2361E+02  9.8199E+03 -5.3514E+03  1.3395E+03  4.4165E+03  7.3778E+03  2.0375E+03  0.0000E+00
 240.000f  3.0025E+04  0.0000E+00  2.0083E+04 -2.2738E+04 -1.9450E+03  4.4766E+04  0.0000E+00  0.0000E+00  0.0000E+00
   3.187m  4.3695E+04  0.0000E+00  0.0000E+00  0.0000E+00  9.0000E+01  9.0000E+01  9.0000E+01  0.0000E+00  1.5248E+00

  rolling  2.2692E+04  3.1589E+02  1.0153E+04 -5.3571E+03  1.3411E+03  4.8079E+03  7.3216E+03  2.0392E+03  0.0000E+00
 averages  2.5681E+04  0.0000E+00  3.2188E+04 -2.2675E+04 -1.9462E+03  5.6809E+04  0.0000E+00  0.0000E+00  0.0000E+00
           4.3695E+04  0.0000E+00  0.0000E+00  0.0000E+00  9.0000E+01  9.0000E+01  9.0000E+01  0.0000E+00 -8.4847E-02
 ------------------------------------------------------------------------------------------------------------------------
     2500  2.2692E+04  2.9507E+02  1.1333E+04 -5.3039E+03  1.3434E+03  5.3801E+03  7.8682E+03  2.0450E+03  0.0000E+00
 250.000f  3.2049E+04  0.0000E+00  1.1434E+04 -2.3321E+04 -1.9443E+03  3.6699E+04  0.0000E+00  0.0000E+00  0.0000E+00
   3.321m  4.3695E+04  0.0000E+00  0.0000E+00  0.0000E+00  9.0000E+01  9.0000E+01  9.0000E+01  0.0000E+00  2.2502E+00

  rolling  2.2692E+04  3.2060E+02  1.0018E+04 -5.3520E+03  1.3376E+03  4.7355E+03  7.2611E+03  2.0354E+03  0.0000E+00
 averages  2.7167E+04  0.0000E+00  2.8500E+04 -2.2735E+04 -1.9378E+03  5.3173E+04  0.0000E+00  0.0000E+00  0.0000E+00
           4.3695E+04  0.0000E+00  0.0000E+00  0.0000E+00  9.0000E+01  9.0000E+01  9.0000E+01  0.0000E+00  4.3505E-01
 ------------------------------------------------------------------------------------------------------------------------
     2600  2.2692E+04  3.1699E+02  1.0312E+04 -5.2371E+03  1.3463E+03  4.9997E+03  7.1271E+03  2.0764E+03  0.0000E+00
 260.000f  3.2070E+04  0.0000E+00  1.3776E+04 -2.4232E+04 -1.9581E+03  3.9967E+04  0.0000E+00  0.0000E+00  0.0000E+00
   3.453m  4.3695E+04  0.0000E+00  0.0000E+00  0.0000E+00  9.0000E+01  9.0000E+01  9.0000E+01  0.0000E+00  2.2308E+00

  rolling  2.2692E+04  3.1951E+02  1.0151E+04 -5.3078E+03  1.3440E+03  4.6305E+03  7.4269E+03  2.0578E+03  0.0000E+00
 averages  3.0275E+04  0.0000E+00  1.9308E+04 -2.3292E+04 -1.9504E+03  4.4551E+04  0.0000E+00  0.0000E+00  0.0000E+00
           4.3695E+04  0.0000E+00  0.0000E+00  0.0000E+00  9.0000E+01  9.0000E+01  9.0000E+01  0.0000E+00  1.5706E+00
 ------------------------------------------------------------------------------------------------------------------------
     2700  2.2692E+04  3.2314E+02  1.0057E+04 -5.1616E+03  1.3370E+03  4.5171E+03  7.2938E+03  2.0708E+03  0.0000E+00
 270.000f  2.8340E+04  0.0000E+00  2.5735E+04 -2.5339E+04 -1.9480E+03  5.3022E+04  0.0000E+00  0.0000E+00  0.0000E+00
   3.586m  4.3695E+04  0.0000E+00  0.0000E+00  0.0000E+00  9.0000E+01  9.0000E+01  9.0000E+01  0.0000E+00  8.1240E-01

  rolling  2.2692E+04  3.1420E+02  1.0479E+04 -5.1927E+03  1.3435E+03  4.7295E+03  7.5122E+03  2.0861E+03  0.0000E+00
 averages  3.1433E+04  0.0000E+00  1.5491E+04 -2.4873E+04 -1.9580E+03  4.2322E+04  0.0000E+00  0.0000E+00  0.0000E+00
           4.3695E+04  0.0000E+00  0.0000E+00  0.0000E+00  9.0000E+01  9.0000E+01  9.0000E+01  0.0000E+00  1.9816E+00
 ------------------------------------------------------------------------------------------------------------------------
     2800  2.2692E+04  3.2632E+02  9.9329E+03 -5.1332E+03  1.3371E+03  4.1983E+03  7.5142E+03  2.0165E+03  0.0000E+00
 280.000f  2.7617E+04  0.0000E+00  2.8322E+04 -2.5901E+04 -1.9432E+03  5.6166E+04  0.0000E+00  0.0000E+00  0.0000E+00
   3.718m  4.3695E+04  0.0000E+00  0.0000E+00  0.0000E+00  9.0000E+01  9.0000E+01  9.0000E+01  0.0000E+00  5.2854E-01

  rolling  2.2692E+04  3.1948E+02  1.0259E+04 -5.1507E+03  1.3376E+03  4.6544E+03  7.3776E+03  2.0403E+03  0.0000E+00
 averages  3.1057E+04  0.0000E+00  1.7275E+04 -2.5539E+04 -1.9472E+03  4.4761E+04  0.0000E+00  0.0000E+00  0.0000E+00
           4.3695E+04  0.0000E+00  0.0000E+00  0.0000E+00  9.0000E+01  9.0000E+01  9.0000E+01  0.0000E+00  1.8244E+00
 ------------------------------------------------------------------------------------------------------------------------
     2900  2.2692E+04  3.1532E+02  1.0496E+04 -5.1770E+03  1.3396E+03  4.6415E+03  7.6581E+03  2.0338E+03  0.0000E+00
 290.000f  2.9545E+04  0.0000E+00  2.1484E+04 -2.5326E+04 -1.9447E+03  4.8755E+04  0.0000E+00  0.0000E+00  0.0000E+00
   3.852m  4.3695E+04  0.0000E+00  0.0000E+00  0.0000E+00  9.0000E+01  9.0000E+01  9.0000E+01  0.0000E+00  1.2463E+00

  rolling  2.2692E+04  3.1690E+02  1.0412E+04 -5.1383E+03  1.3405E+03  4.7840E+03  7.4060E+03  2.0197E+03  0.0000E+00
 averages  3.1469E+04  0.0000E+00  1.5856E+04 -2.5839E+04 -1.9474E+03  4.3642E+04  0.0000E+00  0.0000E+00  0.0000E+00
           4.3695E+04  0.0000E+00  0.0000E+00  0.0000E+00  9.0000E+01  9.0000E+01  9.0000E+01  0.0000E+00  1.9696E+00
 ------------------------------------------------------------------------------------------------------------------------
     3000  2.2693E+04  3.1308E+02  1.0603E+04 -5.2389E+03  1.3418E+03  5.1726E+03  7.3052E+03  2.0218E+03  0.0000E+00
 300.000f  3.2292E+04  0.0000E+00  1.3005E+04 -2.4427E+04 -1.9438E+03  3.9376E+04  0.0000E+00  0.0000E+00  0.0000E+00
   3.984m  4.3695E+04  0.0000E+00  0.0000E+00  0.0000E+00  9.0000E+01  9.0000E+01  9.0000E+01  0.0000E+00  2.2785E+00

  rolling  2.2692E+04  3.2236E+02  1.0144E+04 -5.2035E+03  1.3409E+03  4.6183E+03  7.3619E+03  2.0267E+03  0.0000E+00
 averages  3.2990E+04  0.0000E+00  1.1849E+04 -2.4906E+04 -1.9440E+03  3.8699E+04  0.0000E+00  0.0000E+00  0.0000E+00
           4.3695E+04  0.0000E+00  0.0000E+00  0.0000E+00  9.0000E+01  9.0000E+01  9.0000E+01  0.0000E+00  2.5386E+00
 ------------------------------------------------------------------------------------------------------------------------
     3100  2.2693E+04  3.2171E+02  1.0144E+04 -5.2241E+03  1.3408E+03  4.8268E+03  7.2129E+03  1.9876E+03  0.0000E+00
 310.000f  3.2137E+04  0.0000E+00  1.4248E+04 -2.4699E+04 -1.9509E+03  4.0898E+04  0.0000E+00  0.0000E+00  0.0000E+00
   4.119m  4.3695E+04  0.0000E+00  0.0000E+00  0.0000E+00  9.0000E+01  9.0000E+01  9.0000E+01  0.0000E+00  2.2306E+00

  rolling  2.2693E+04  3.2126E+02  1.0182E+04 -5.2409E+03  1.3420E+03  4.6588E+03  7.4175E+03  2.0049E+03  0.0000E+00
 averages  3.1514E+04  0.0000E+00  1.6118E+04 -2.4446E+04 -1.9467E+03  4.2510E+04  0.0000E+00  0.0000E+00  0.0000E+00
           4.3695E+04  0.0000E+00  0.0000E+00  0.0000E+00  9.0000E+01  9.0000E+01  9.0000E+01  0.0000E+00  1.9913E+00
 ------------------------------------------------------------------------------------------------------------------------
 ------------------------------------------------------------------------------------------------------------------------

     step     eng_tot    temp_tot     eng_cfg     eng_vdw     eng_cou     eng_bnd     eng_ang     eng_dih     eng_tet
 time          eng_pv    temp_rot     vir_cfg     vir_vdw     vir_cou     vir_bnd     vir_ang     vir_con     vir_tet
 cpu time      volume    temp_shl     eng_shl     vir_shl       alpha        beta       gamma     vir_pmf       press

 ------------------------------------------------------------------------------------------------------------------------
     3200  2.2692E+04  3.2503E+02  9.9296E+03 -5.2426E+03  1.3352E+03  4.4741E+03  7.3625E+03  2.0004E+03  0.0000E+00
 320.000f  3.3077E+04  0.0000E+00  1.1611E+04 -2.4331E+04 -1.9443E+03  3.7886E+04  0.0000E+00  0.0000E+00  0.0000E+00
   4.253m  4.3695E+04  0.0000E+00  0.0000E+00  0.0000E+00  9.0000E+01  9.0000E+01  9.0000E+01  0.0000E+00  2.6018E+00

  rolling  2.2693E+04  3.1639E+02  1.0386E+04 -5.2198E+03  1.3356E+03  4.7217E+03  7.5505E+03  1.9984E+03  0.0000E+00
 averages  2.8714E+04  0.0000E+00  2.3915E+04 -2.4732E+04 -1.9446E+03  5.0591E+04  0.0000E+00  0.0000E+00  0.0000E+00
           4.3695E+04  0.0000E+00  0.0000E+00  0.0000E+00  9.0000E+01  9.0000E+01  9.0000E+01  0.0000E+00  9.5573E-01
 ------------------------------------------------------------------------------------------------------------------------
     3300  2.2692E+04  3.2566E+02  9.8318E+03 -5.2921E+03  1.3439E+03  4.2399E+03  7.4939E+03  2.0463E+03  0.0000E+00
 330.000f  3.3447E+04  0.0000E+00  1.0367E+04 -2.3589E+04 -1.9510E+03  3.5907E+04  0.0000E+00  0.0000E+00  0.0000E+00
   4.384m  4.3695E+04  0.0000E+00  0.0000E+00  0.0000E+00  9.0000E+01  9.0000E+01  9.0000E+01  0.0000E+00  2.7651E+00

  rolling  2.2693E+04  3.1682E+02  1.0307E+04 -5.2661E+03  1.3369E+03  4.7544E+03  7.4657E+03  2.0166E+03  0.0000E+00
 averages  2.8701E+04  0.0000E+00  2.3826E+04 -2.3967E+04 -1.9433E+03  4.9736E+04  0.0000E+00  0.0000E+00  0.0000E+00
           4.3695E+04  0.0000E+00  0.0000E+00  0.0000E+00  9.0000E+01  9.0000E+01  9.0000E+01  0.0000E+00  9.7223E-01
 ------------------------------------------------------------------------------------------------------------------------
     3400  2.2693E+04  3.1347E+02  1.0356E+04 -5.3248E+03  1.3454E+03  4.6851E+03  7.5496E+03  2.1002E+03  0.0000E+00
 340.000f  3.0686E+04  0.0000E+00  1.7180E+04 -2.3108E+04 -1.9482E+03  4.2236E+04  0.0000E+00  0.0000E+00  0.0000E+00
   4.518m  4.3695E+04  0.0000E+00  0.0000E+00  0.0000E+00  9.0000E+01  9.0000E+01  9.0000E+01  0.0000E+00  1.7614E+00

  rolling  2.2693E+04  3.1606E+02  1.0269E+04 -5.2836E+03  1.3449E+03  4.6522E+03  7.4768E+03  2.0790E+03  0.0000E+00
 averages  2.9353E+04  0.0000E+00  2.1566E+04 -2.3717E+04 -1.9489E+03  4.7232E+04  0.0000E+00  0.0000E+00  0.0000E+00
           4.3695E+04  0.0000E+00  0.0000E+00  0.0000E+00  9.0000E+01  9.0000E+01  9.0000E+01  0.0000E+00  1.2453E+00
 ------------------------------------------------------------------------------------------------------------------------
     3500  2.2693E+04  3.0758E+02  1.0546E+04 -5.3391E+03  1.3368E+03  4.9830E+03  7.4709E+03  2.0947E+03  0.0000E+00
 350.000f  2.3422E+04  0.0000E+00  3.8075E+04 -2.2877E+04 -1.9387E+03  6.2891E+04  0.0000E+00  0.0000E+00  0.0000E+00
   4.654m  4.3695E+04  0.0000E+00  0.0000E+00  0.0000E+00  9.0000E+01  9.0000E+01  9.0000E+01  0.0000E+00 -9.2445E-01

  rolling  2.2693E+04  3.1948E+02  1.0005E+04 -5.3544E+03  1.3400E+03  4.5827E+03  7.3395E+03  2.0973E+03  0.0000E+00
 averages  2.8746E+04  0.0000E+00  2.3448E+04 -2.2653E+04 -1.9431E+03  4.8045E+04  0.0000E+00  0.0000E+00  0.0000E+00
           4.3695E+04  0.0000E+00  0.0000E+00  0.0000E+00  9.0000E+01  9.0000E+01  9.0000E+01  0.0000E+00  1.0526E+00
 ------------------------------------------------------------------------------------------------------------------------
     3600  2.2693E+04  3.1277E+02  1.0170E+04 -5.3230E+03  1.3343E+03  4.8623E+03  7.2135E+03  2.0828E+03  0.0000E+00
 360.000f  2.2133E+04  0.0000E+00  4.2107E+04 -2.3152E+04 -1.9327E+03  6.7192E+04  0.0000E+00  0.0000E+00  0.0000E+00
   4.785m  4.3695E+04  0.0000E+00  0.0000E+00  0.0000E+00  9.0000E+01  9.0000E+01  9.0000E+01  0.0000E+00 -1.3638E+00

  rolling  2.2693E+04  3.1276E+02  1.0229E+04 -5.3199E+03  1.3367E+03  4.6384E+03  7.4839E+03  2.0903E+03  0.0000E+00
 averages  2.5836E+04  0.0000E+00  3.1175E+04 -2.3161E+04 -1.9390E+03  5.6275E+04  0.0000E+00  0.0000E+00  0.0000E+00
           4.3695E+04  0.0000E+00  0.0000E+00  0.0000E+00  9.0000E+01  9.0000E+01  9.0000E+01  0.0000E+00  2.8003E-03
 ------------------------------------------------------------------------------------------------------------------------
     3700  2.2693E+04  3.1561E+02  9.8976E+03 -5.3250E+03  1.3393E+03  4.3190E+03  7.5021E+03  2.0620E+03  0.0000E+00
 370.000f  2.9191E+04  0.0000E+00  2.0823E+04 -2.2952E+04 -1.9273E+03  4.5703E+04  0.0000E+00  0.0000E+00  0.0000E+00
   4.919m  4.3695E+04  0.0000E+00  0.0000E+00  0.0000E+00  9.0000E+01  9.0000E+01  9.0000E+01  0.0000E+00  1.3325E+00

  rolling  2.2693E+04  3.1246E+02  1.0120E+04 -5.3141E+03  1.3386E+03  4.5708E+03  7.4521E+03  2.0726E+03  0.0000E+00
 averages  2.9909E+04  0.0000E+00  1.8552E+04 -2.3140E+04 -1.9328E+03  4.3625E+04  0.0000E+00  0.0000E+00  0.0000E+00
           4.3695E+04  0.0000E+00  0.0000E+00  0.0000E+00  9.0000E+01  9.0000E+01  9.0000E+01  0.0000E+00  1.5773E+00
 ------------------------------------------------------------------------------------------------------------------------
     3800  2.2693E+04  3.0791E+02  1.0138E+04 -5.2530E+03  1.3429E+03  4.4524E+03  7.5731E+03  2.0224E+03  0.0000E+00
 380.000f  2.9195E+04  0.0000E+00  1.9611E+04 -2.4077E+04 -1.9334E+03  4.5622E+04  0.0000E+00  0.0000E+00  0.0000E+00
   5.051m  4.3695E+04  0.0000E+00  0.0000E+00  0.0000E+00  9.0000E+01  9.0000E+01  9.0000E+01  0.0000E+00  1.3880E+00

  rolling  2.2693E+04  3.1142E+02  1.0035E+04 -5.3066E+03  1.3435E+03  4.6632E+03  7.2940E+03  2.0404E+03  0.0000E+00
 averages  3.0393E+04  0.0000E+00  1.6586E+04 -2.3261E+04 -1.9333E+03  4.1780E+04  0.0000E+00  0.0000E+00  0.0000E+00
           4.3695E+04  0.0000E+00  0.0000E+00  0.0000E+00  9.0000E+01  9.0000E+01  9.0000E+01  0.0000E+00  1.8100E+00
 ------------------------------------------------------------------------------------------------------------------------
     3900  2.2693E+04  3.0888E+02  9.9356E+03 -5.2834E+03  1.3292E+03  4.5485E+03  7.3222E+03  2.0191E+03  0.0000E+00
 390.000f  2.9762E+04  0.0000E+00  1.7548E+04 -2.3649E+04 -1.9118E+03  4.3108E+04  0.0000E+00  0.0000E+00  0.0000E+00
   5.185m  4.3695E+04  0.0000E+00  0.0000E+00  0.0000E+00  9.0000E+01  9.0000E+01  9.0000E+01  0.0000E+00  1.6581E+00

  rolling  2.2693E+04  3.1198E+02  9.8589E+03 -5.2739E+03  1.3363E+03  4.5819E+03  7.2015E+03  2.0130E+03  0.0000E+00
 averages  2.8181E+04  0.0000E+00  2.2833E+04 -2.3813E+04 -1.9230E+03  4.8569E+04  0.0000E+00  0.0000E+00  0.0000E+00
           4.3695E+04  0.0000E+00  0.0000E+00  0.0000E+00  9.0000E+01  9.0000E+01  9.0000E+01  0.0000E+00  1.0360E+00
 ------------------------------------------------------------------------------------------------------------------------
 ------------------------------------------------------------------------------------------------------------------------

     step     eng_tot    temp_tot     eng_cfg     eng_vdw     eng_cou     eng_bnd     eng_ang     eng_dih     eng_tet
 time          eng_pv    temp_rot     vir_cfg     vir_vdw     vir_cou     vir_bnd     vir_ang     vir_con     vir_tet
 cpu time      volume    temp_shl     eng_shl     vir_shl       alpha        beta       gamma     vir_pmf       press

 ------------------------------------------------------------------------------------------------------------------------
     4000  2.2694E+04  3.0152E+02  1.0142E+04 -5.2554E+03  1.3345E+03  4.8892E+03  7.1617E+03  2.0124E+03  0.0000E+00
 400.000f  3.0360E+04  0.0000E+00  1.4536E+04 -2.4139E+04 -1.9189E+03  4.0593E+04  0.0000E+00  0.0000E+00  0.0000E+00
   5.316m  4.3695E+04  0.0000E+00  0.0000E+00  0.0000E+00  9.0000E+01  9.0000E+01  9.0000E+01  0.0000E+00  1.9428E+00

  rolling  2.2693E+04  3.0573E+02  1.0012E+04 -5.2556E+03  1.3307E+03  4.5391E+03  7.3786E+03  2.0190E+03  0.0000E+00
 averages  2.8250E+04  0.0000E+00  2.1527E+04 -2.4068E+04 -1.9118E+03  4.7506E+04  0.0000E+00  0.0000E+00  0.0000E+00
           4.3695E+04  0.0000E+00  0.0000E+00  0.0000E+00  9.0000E+01  9.0000E+01  9.0000E+01  0.0000E+00  1.1214E+00
 ------------------------------------------------------------------------------------------------------------------------
     4100  2.2693E+04  3.0521E+02  9.7877E+03 -5.2462E+03  1.3402E+03  4.5897E+03  7.0691E+03  2.0349E+03  0.0000E+00
 410.000f  3.3617E+04  0.0000E+00  4.6220E+03 -2.4231E+04 -1.9185E+03  3.0772E+04  0.0000E+00  0.0000E+00  0.0000E+00
   5.451m  4.3695E+04  0.0000E+00  0.0000E+00  0.0000E+00  9.0000E+01  9.0000E+01  9.0000E+01  0.0000E+00  3.2283E+00

  rolling  2.2693E+04  3.0959E+02  9.6545E+03 -5.2496E+03  1.3381E+03  4.4116E+03  7.1332E+03  2.0212E+03  0.0000E+00
 averages  3.1359E+04  0.0000E+00  1.2090E+04 -2.4236E+04 -1.9192E+03  3.8246E+04  0.0000E+00  0.0000E+00  0.0000E+00
           4.3695E+04  0.0000E+00  0.0000E+00  0.0000E+00  9.0000E+01  9.0000E+01  9.0000E+01  0.0000E+00  2.3492E+00
 ------------------------------------------------------------------------------------------------------------------------
     4200  2.2693E+04  3.0886E+02  9.4342E+03 -5.2051E+03  1.3353E+03  4.2137E+03  7.0034E+03  2.0870E+03  0.0000E+00
 420.000f  2.8382E+04  0.0000E+00  2.0180E+04 -2.4694E+04 -1.9111E+03  4.6785E+04  0.0000E+00  0.0000E+00  0.0000E+00
   5.582m  4.3695E+04  0.0000E+00  0.0000E+00  0.0000E+00  9.0000E+01  9.0000E+01  9.0000E+01  0.0000E+00  1.3288E+00

  rolling  2.2693E+04  3.0054E+02  9.9343E+03 -5.2484E+03  1.3373E+03  4.5538E+03  7.2285E+03  2.0630E+03  0.0000E+00
 averages  3.0793E+04  0.0000E+00  1.2370E+04 -2.4161E+04 -1.9128E+03  3.8444E+04  0.0000E+00  0.0000E+00  0.0000E+00
           4.3695E+04  0.0000E+00  0.0000E+00  0.0000E+00  9.0000E+01  9.0000E+01  9.0000E+01  0.0000E+00  2.2014E+00
 ------------------------------------------------------------------------------------------------------------------------
     4300  2.2693E+04  3.0199E+02  9.6062E+03 -5.2799E+03  1.3333E+03  4.3263E+03  7.1439E+03  2.0827E+03  0.0000E+00
 430.000f  2.5834E+04  0.0000E+00  2.6625E+04 -2.3763E+04 -1.9141E+03  5.2302E+04  0.0000E+00  0.0000E+00  0.0000E+00
   5.716m  4.3695E+04  0.0000E+00  0.0000E+00  0.0000E+00  9.0000E+01  9.0000E+01  9.0000E+01  0.0000E+00  4.3728E-01

  rolling  2.2693E+04  2.9949E+02  9.8149E+03 -5.2074E+03  1.3332E+03  4.5997E+03  6.9986E+03  2.0907E+03  0.0000E+00
 averages  2.5977E+04  0.0000E+00  2.6199E+04 -2.4699E+04 -1.9116E+03  5.2810E+04  0.0000E+00  0.0000E+00  0.0000E+00
           4.3695E+04  0.0000E+00  0.0000E+00  0.0000E+00  9.0000E+01  9.0000E+01  9.0000E+01  0.0000E+00  4.5943E-01
 ------------------------------------------------------------------------------------------------------------------------
     4400  2.2693E+04  2.9413E+02  9.8291E+03 -5.3259E+03  1.3423E+03  4.5574E+03  7.2181E+03  2.0372E+03  0.0000E+00
 440.000f  2.8508E+04  0.0000E+00  1.7312E+04 -2.2940E+04 -1.9269E+03  4.2179E+04  0.0000E+00  0.0000E+00  0.0000E+00
   5.848m  4.3695E+04  0.0000E+00  0.0000E+00  0.0000E+00  9.0000E+01  9.0000E+01  9.0000E+01  0.0000E+00  1.5037E+00

  rolling  2.2693E+04  2.9829E+02  9.7048E+03 -5.3150E+03  1.3362E+03  4.5379E+03  7.0831E+03  2.0626E+03  0.0000E+00
 averages  2.8004E+04  0.0000E+00  1.9487E+04 -2.3200E+04 -1.9197E+03  4.4607E+04  0.0000E+00  0.0000E+00  0.0000E+00
           4.3695E+04  0.0000E+00  0.0000E+00  0.0000E+00  9.0000E+01  9.0000E+01  9.0000E+01  0.0000E+00  1.2836E+00
 ------------------------------------------------------------------------------------------------------------------------
     4500  2.2693E+04  2.9208E+02  9.7626E+03 -5.3206E+03  1.3433E+03  4.7832E+03  6.9826E+03  1.9741E+03  0.0000E+00
 450.000f  2.5930E+04  0.0000E+00  2.4334E+04 -2.2938E+04 -1.9261E+03  4.9199E+04  0.0000E+00  0.0000E+00  0.0000E+00
   5.982m  4.3695E+04  0.0000E+00  0.0000E+00  0.0000E+00  9.0000E+01  9.0000E+01  9.0000E+01  0.0000E+00  6.0017E-01

  rolling  2.2693E+04  3.0037E+02  9.4324E+03 -5.3178E+03  1.3447E+03  4.3805E+03  7.0268E+03  1.9982E+03  0.0000E+00
 averages  2.8470E+04  0.0000E+00  1.7792E+04 -2.2990E+04 -1.9284E+03  4.2711E+04  0.0000E+00  0.0000E+00  0.0000E+00
           4.3695E+04  0.0000E+00  0.0000E+00  0.0000E+00  9.0000E+01  9.0000E+01  9.0000E+01  0.0000E+00  1.5214E+00
 ------------------------------------------------------------------------------------------------------------------------
     4600  2.2693E+04  3.0267E+02  9.0694E+03 -5.3605E+03  1.3337E+03  4.3820E+03  6.7419E+03  1.9722E+03  0.0000E+00
 460.000f  2.5282E+04  0.0000E+00  2.6840E+04 -2.2318E+04 -1.9179E+03  5.1076E+04  0.0000E+00  0.0000E+00  0.0000E+00
   6.114m  4.3695E+04  0.0000E+00  0.0000E+00  0.0000E+00  9.0000E+01  9.0000E+01  9.0000E+01  0.0000E+00  4.1889E-01

  rolling  2.2693E+04  2.9714E+02  9.4267E+03 -5.3268E+03  1.3385E+03  4.3976E+03  7.0450E+03  1.9725E+03  0.0000E+00
 averages  2.6282E+04  0.0000E+00  2.3533E+04 -2.2826E+04 -1.9226E+03  4.8282E+04  0.0000E+00  0.0000E+00  0.0000E+00
           4.3695E+04  0.0000E+00  0.0000E+00  0.0000E+00  9.0000E+01  9.0000E+01  9.0000E+01  0.0000E+00  7.6343E-01
 ------------------------------------------------------------------------------------------------------------------------
     4700  2.2692E+04  2.9907E+02  9.0898E+03 -5.3416E+03  1.3385E+03  4.1194E+03  7.0319E+03  1.9415E+03  0.0000E+00
 470.000f  2.7000E+04  0.0000E+00  2.0850E+04 -2.2401E+04 -1.9285E+03  4.5179E+04  0.0000E+00  0.0000E+00  0.0000E+00
   6.247m  4.3695E+04  0.0000E+00  0.0000E+00  0.0000E+00  9.0000E+01  9.0000E+01  9.0000E+01  0.0000E+00  1.1229E+00

  rolling  2.2693E+04  2.9176E+02  9.5318E+03 -5.3385E+03  1.3355E+03  4.4630E+03  7.1061E+03  1.9658E+03  0.0000E+00
 averages  2.4902E+04  0.0000E+00  2.6647E+04 -2.2518E+04 -1.9238E+03  5.1089E+04  0.0000E+00  0.0000E+00  0.0000E+00
           4.3695E+04  0.0000E+00  0.0000E+00  0.0000E+00  9.0000E+01  9.0000E+01  9.0000E+01  0.0000E+00  3.0709E-01
 ------------------------------------------------------------------------------------------------------------------------
 ------------------------------------------------------------------------------------------------------------------------

     step     eng_tot    temp_tot     eng_cfg     eng_vdw     eng_cou     eng_bnd     eng_ang     eng_dih     eng_tet
 time          eng_pv    temp_rot     vir_cfg     vir_vdw     vir_cou     vir_bnd     vir_ang     vir_con     vir_tet
 cpu time      volume    temp_shl     eng_shl     vir_shl       alpha        beta       gamma     vir_pmf       press

 ------------------------------------------------------------------------------------------------------------------------
     4800  2.2693E+04  2.9380E+02  9.1992E+03 -5.3658E+03  1.3409E+03  4.1737E+03  7.1343E+03  1.9160E+03  0.0000E+00
 480.000f  2.9697E+04  0.0000E+00  1.1772E+04 -2.2051E+04 -1.9259E+03  3.5748E+04  0.0000E+00  0.0000E+00  0.0000E+00
   6.379m  4.3695E+04  0.0000E+00  0.0000E+00  0.0000E+00  9.0000E+01  9.0000E+01  9.0000E+01  0.0000E+00  2.1922E+00

  rolling  2.2693E+04  2.9497E+02  9.2163E+03 -5.3688E+03  1.3401E+03  4.3886E+03  6.9301E+03  1.9263E+03  0.0000E+00
 averages  2.6636E+04  0.0000E+00  2.1296E+04 -2.2017E+04 -1.9279E+03  4.5241E+04  0.0000E+00  0.0000E+00  0.0000E+00
           4.3695E+04  0.0000E+00  0.0000E+00  0.0000E+00  9.0000E+01  9.0000E+01  9.0000E+01  0.0000E+00  1.0160E+00
 ------------------------------------------------------------------------------------------------------------------------
     4900  2.2693E+04  2.8416E+02  9.5328E+03 -5.3675E+03  1.3367E+03  4.6201E+03  7.0388E+03  1.9047E+03  0.0000E+00
 490.000f  2.4514E+04  0.0000E+00  2.5919E+04 -2.1940E+04 -1.9221E+03  4.9781E+04  0.0000E+00  0.0000E+00  0.0000E+00
   6.513m  4.3695E+04  0.0000E+00  0.0000E+00  0.0000E+00  9.0000E+01  9.0000E+01  9.0000E+01  0.0000E+00  3.0334E-01

  rolling  2.2693E+04  2.9360E+02  9.1340E+03 -5.3979E+03  1.3383E+03  4.3905E+03  6.8980E+03  1.9051E+03  0.0000E+00
 averages  2.6376E+04  0.0000E+00  2.1489E+04 -2.1594E+04 -1.9222E+03  4.5006E+04  0.0000E+00  0.0000E+00  0.0000E+00
           4.3695E+04  0.0000E+00  0.0000E+00  0.0000E+00  9.0000E+01  9.0000E+01  9.0000E+01  0.0000E+00  9.7478E-01
 ------------------------------------------------------------------------------------------------------------------------
     5000  2.2693E+04  2.8759E+02  9.2217E+03 -5.4043E+03  1.3320E+03  4.5791E+03  6.8109E+03  1.9040E+03  0.0000E+00
 500.000f  2.3002E+04  0.0000E+00  3.0376E+04 -2.1328E+04 -1.9147E+03  5.3618E+04  0.0000E+00  0.0000E+00  0.0000E+00
   6.645m  4.3695E+04  0.0000E+00  0.0000E+00  0.0000E+00  9.0000E+01  9.0000E+01  9.0000E+01  0.0000E+00 -2.1119E-01

  rolling  2.2693E+04  2.9417E+02  8.9626E+03 -5.3998E+03  1.3344E+03  4.2931E+03  6.8310E+03  1.9039E+03  0.0000E+00
 averages  2.4616E+04  0.0000E+00  2.6398E+04 -2.1442E+04 -1.9195E+03  4.9759E+04  0.0000E+00  0.0000E+00  0.0000E+00
           4.3695E+04  0.0000E+00  0.0000E+00  0.0000E+00  9.0000E+01  9.0000E+01  9.0000E+01  0.0000E+00  3.6823E-01
 ------------------------------------------------------------------------------------------------------------------------
     5100  2.2693E+04  2.9141E+02  8.8983E+03 -5.4161E+03  1.3331E+03  4.2438E+03  6.8512E+03  1.8862E+03  0.0000E+00
 510.000f  2.4902E+04  0.0000E+00  2.4659E+04 -2.1078E+04 -1.9118E+03  4.7650E+04  0.0000E+00  0.0000E+00  0.0000E+00
   6.779m  4.3695E+04  0.0000E+00  0.0000E+00  0.0000E+00  9.0000E+01  9.0000E+01  9.0000E+01  0.0000E+00  5.5119E-01

  rolling  2.2693E+04  2.9189E+02  8.9395E+03 -5.3964E+03  1.3330E+03  4.2492E+03  6.8554E+03  1.8984E+03  0.0000E+00
 averages  2.7825E+04  0.0000E+00  1.6133E+04 -2.1371E+04 -1.9128E+03  3.9416E+04  0.0000E+00  0.0000E+00  0.0000E+00
           4.3695E+04  0.0000E+00  0.0000E+00  0.0000E+00  9.0000E+01  9.0000E+01  9.0000E+01  0.0000E+00  1.6232E+00
 ------------------------------------------------------------------------------------------------------------------------
     5200  2.2692E+04  2.9679E+02  8.5072E+03 -5.4218E+03  1.3340E+03  4.0291E+03  6.7102E+03  1.8557E+03  0.0000E+00
 520.000f  2.3740E+04  0.0000E+00  2.8313E+04 -2.0893E+04 -1.9115E+03  5.1117E+04  0.0000E+00  0.0000E+00  0.0000E+00
   6.910m  4.3695E+04  0.0000E+00  0.0000E+00  0.0000E+00  9.0000E+01  9.0000E+01  9.0000E+01  0.0000E+00  1.6145E-01

  rolling  2.2693E+04  2.9024E+02  8.8943E+03 -5.4211E+03  1.3355E+03  4.2711E+03  6.8394E+03  1.8694E+03  0.0000E+00
 averages  2.6777E+04  0.0000E+00  1.8729E+04 -2.0956E+04 -1.9140E+03  4.1599E+04  0.0000E+00  0.0000E+00  0.0000E+00
           4.3695E+04  0.0000E+00  0.0000E+00  0.0000E+00  9.0000E+01  9.0000E+01  9.0000E+01  0.0000E+00  1.2779E+00
 ------------------------------------------------------------------------------------------------------------------------
     5300  2.2692E+04  2.9003E+02  8.7326E+03 -5.3913E+03  1.3292E+03  4.1542E+03  6.7844E+03  1.8562E+03  0.0000E+00
 530.000f  2.6453E+04  0.0000E+00  1.9165E+04 -2.1163E+04 -1.9057E+03  4.2233E+04  0.0000E+00  0.0000E+00  0.0000E+00
   7.045m  4.3695E+04  0.0000E+00  0.0000E+00  0.0000E+00  9.0000E+01  9.0000E+01  9.0000E+01  0.0000E+00  1.2209E+00

  rolling  2.2693E+04  2.8682E+02  8.9470E+03 -5.3989E+03  1.3310E+03  4.3932E+03  6.7663E+03  1.8554E+03  0.0000E+00
 averages  2.4400E+04  0.0000E+00  2.5166E+04 -2.1133E+04 -1.9071E+03  4.8206E+04  0.0000E+00  0.0000E+00  0.0000E+00
           4.3695E+04  0.0000E+00  0.0000E+00  0.0000E+00  9.0000E+01  9.0000E+01  9.0000E+01  0.0000E+00  4.3054E-01
 ------------------------------------------------------------------------------------------------------------------------
     5400  2.2692E+04  2.8261E+02  9.0027E+03 -5.4051E+03  1.3340E+03  4.4493E+03  6.7604E+03  1.8641E+03  0.0000E+00
 540.000f  2.9207E+04  0.0000E+00  9.8638E+03 -2.0847E+04 -1.9117E+03  3.2623E+04  0.0000E+00  0.0000E+00  0.0000E+00
   7.176m  4.3695E+04  0.0000E+00  0.0000E+00  0.0000E+00  9.0000E+01  9.0000E+01  9.0000E+01  0.0000E+00  2.2912E+00

  rolling  2.2692E+04  2.8778E+02  8.7931E+03 -5.4039E+03  1.3303E+03  4.2484E+03  6.7599E+03  1.8584E+03  0.0000E+00
 averages  2.5334E+04  0.0000E+00  2.2143E+04 -2.0936E+04 -1.9074E+03  4.4986E+04  0.0000E+00  0.0000E+00  0.0000E+00
           4.3695E+04  0.0000E+00  0.0000E+00  0.0000E+00  9.0000E+01  9.0000E+01  9.0000E+01  0.0000E+00  8.2054E-01
 ------------------------------------------------------------------------------------------------------------------------
     5500  2.2692E+04  2.8090E+02  9.0014E+03 -5.3997E+03  1.3325E+03  4.4164E+03  6.7420E+03  1.9102E+03  0.0000E+00
 550.000f  2.7421E+04  0.0000E+00  1.4790E+04 -2.0862E+04 -1.9015E+03  3.7554E+04  0.0000E+00  0.0000E+00  0.0000E+00
   7.310m  4.3695E+04  0.0000E+00  0.0000E+00  0.0000E+00  9.0000E+01  9.0000E+01  9.0000E+01  0.0000E+00  1.6539E+00

  rolling  2.2692E+04  2.8624E+02  8.7767E+03 -5.4292E+03  1.3328E+03  4.2520E+03  6.7386E+03  1.8825E+03  0.0000E+00
 averages  2.5334E+04  0.0000E+00  2.1709E+04 -2.0513E+04 -1.9057E+03  4.4128E+04  0.0000E+00  0.0000E+00  0.0000E+00
           4.3695E+04  0.0000E+00  0.0000E+00  0.0000E+00  9.0000E+01  9.0000E+01  9.0000E+01  0.0000E+00  8.5559E-01
 ------------------------------------------------------------------------------------------------------------------------
 ------------------------------------------------------------------------------------------------------------------------

     step     eng_tot    temp_tot     eng_cfg     eng_vdw     eng_cou     eng_bnd     eng_ang     eng_dih     eng_tet
 time          eng_pv    temp_rot     vir_cfg     vir_vdw     vir_cou     vir_bnd     vir_ang     vir_con     vir_tet
 cpu time      volume    temp_shl     eng_shl     vir_shl       alpha        beta       gamma     vir_pmf       press

 ------------------------------------------------------------------------------------------------------------------------
     5600  2.2692E+04  2.8450E+02  8.7498E+03 -5.4608E+03  1.3292E+03  4.2297E+03  6.7268E+03  1.9249E+03  0.0000E+00
 560.000f  2.3000E+04  0.0000E+00  2.8197E+04 -1.9828E+04 -1.8998E+03  4.9925E+04  0.0000E+00  0.0000E+00  0.0000E+00
   7.442m  4.3695E+04  0.0000E+00  0.0000E+00  0.0000E+00  9.0000E+01  9.0000E+01  9.0000E+01  0.0000E+00  2.2674E-02

  rolling  2.2692E+04  2.8446E+02  8.7862E+03 -5.4375E+03  1.3286E+03  4.2634E+03  6.7102E+03  1.9215E+03  0.0000E+00
 averages  2.2964E+04  0.0000E+00  2.8404E+04 -2.0253E+04 -1.8977E+03  5.0555E+04  0.0000E+00  0.0000E+00  0.0000E+00
           4.3695E+04  0.0000E+00  0.0000E+00  0.0000E+00  9.0000E+01  9.0000E+01  9.0000E+01  0.0000E+00 -3.6368E-03
 ------------------------------------------------------------------------------------------------------------------------
     5700  2.2692E+04  2.8996E+02  8.4241E+03 -5.4295E+03  1.3339E+03  3.9142E+03  6.7015E+03  1.9040E+03  0.0000E+00
 570.000f  2.3392E+04  0.0000E+00  2.7404E+04 -2.0157E+04 -1.9096E+03  4.9471E+04  0.0000E+00  0.0000E+00  0.0000E+00
   7.575m  4.3695E+04  0.0000E+00  0.0000E+00  0.0000E+00  9.0000E+01  9.0000E+01  9.0000E+01  0.0000E+00  1.8994E-01

  rolling  2.2692E+04  2.7837E+02  9.0271E+03 -5.4309E+03  1.3334E+03  4.2935E+03  6.9105E+03  1.9206E+03  0.0000E+00
 averages  2.3711E+04  0.0000E+00  2.5366E+04 -2.0153E+04 -1.9069E+03  4.7427E+04  0.0000E+00  0.0000E+00  0.0000E+00
           4.3695E+04  0.0000E+00  0.0000E+00  0.0000E+00  9.0000E+01  9.0000E+01  9.0000E+01  0.0000E+00  3.0012E-01
 ------------------------------------------------------------------------------------------------------------------------
     5800  2.2692E+04  2.8191E+02  8.7890E+03 -5.4810E+03  1.3301E+03  4.2064E+03  6.8265E+03  1.9071E+03  0.0000E+00
 580.000f  2.1985E+04  0.0000E+00  3.0712E+04 -1.9483E+04 -1.8981E+03  5.2094E+04  0.0000E+00  0.0000E+00  0.0000E+00
   7.707m  4.3695E+04  0.0000E+00  0.0000E+00  0.0000E+00  9.0000E+01  9.0000E+01  9.0000E+01  0.0000E+00 -3.2406E-01

  rolling  2.2692E+04  2.8209E+02  8.7966E+03 -5.4456E+03  1.3331E+03  4.2532E+03  6.7518E+03  1.9041E+03  0.0000E+00
 averages  2.5366E+04  0.0000E+00  2.0637E+04 -1.9947E+04 -1.9057E+03  4.2490E+04  0.0000E+00  0.0000E+00  0.0000E+00
           4.3695E+04  0.0000E+00  0.0000E+00  0.0000E+00  9.0000E+01  9.0000E+01  9.0000E+01  0.0000E+00  9.3784E-01
 ------------------------------------------------------------------------------------------------------------------------
     5900  2.2692E+04  2.7734E+02  8.9958E+03 -5.5603E+03  1.3294E+03  4.5664E+03  6.7571E+03  1.9033E+03  0.0000E+00
 590.000f  1.9481E+04  0.0000E+00  3.7705E+04 -1.8344E+04 -1.8971E+03  5.7947E+04  0.0000E+00  0.0000E+00  0.0000E+00
   7.841m  4.3695E+04  0.0000E+00  0.0000E+00  0.0000E+00  9.0000E+01  9.0000E+01  9.0000E+01  0.0000E+00 -1.2553E+00

  rolling  2.2692E+04  2.8571E+02  8.5874E+03 -5.5294E+03  1.3298E+03  4.2146E+03  6.6654E+03  1.9069E+03  0.0000E+00
 averages  2.3292E+04  0.0000E+00  2.7134E+04 -1.8812E+04 -1.8984E+03  4.7844E+04  0.0000E+00  0.0000E+00  0.0000E+00
           4.3695E+04  0.0000E+00  0.0000E+00  0.0000E+00  9.0000E+01  9.0000E+01  9.0000E+01  0.0000E+00  1.7071E-01
 ------------------------------------------------------------------------------------------------------------------------
     6000  2.2692E+04  2.8032E+02  8.8396E+03 -5.5735E+03  1.3333E+03  4.4638E+03  6.7473E+03  1.8686E+03  0.0000E+00
 600.000f  2.2826E+04  0.0000E+00  2.7945E+04 -1.8101E+04 -1.8965E+03  4.7942E+04  0.0000E+00  0.0000E+00  0.0000E+00
   7.972m  4.3695E+04  0.0000E+00  0.0000E+00  0.0000E+00  9.0000E+01  9.0000E+01  9.0000E+01  0.0000E+00  2.1077E-03

  rolling  2.2692E+04  2.8675E+02  8.5217E+03 -5.5755E+03  1.3311E+03  4.2744E+03  6.6062E+03  1.8855E+03  0.0000E+00
 averages  2.2186E+04  0.0000E+00  3.0515E+04 -1.8103E+04 -1.8970E+03  5.0515E+04  0.0000E+00  0.0000E+00  0.0000E+00
           4.3695E+04  0.0000E+00  0.0000E+00  0.0000E+00  9.0000E+01  9.0000E+01  9.0000E+01  0.0000E+00 -2.3907E-01
 ------------------------------------------------------------------------------------------------------------------------
     6100  2.2691E+04  2.8823E+02  8.4514E+03 -5.4554E+03  1.3335E+03  4.0318E+03  6.7163E+03  1.8251E+03  0.0000E+00
 610.000f  2.7581E+04  0.0000E+00  1.4486E+04 -1.9639E+04 -1.8937E+03  3.6018E+04  0.0000E+00  0.0000E+00  0.0000E+00
   8.106m  4.3695E+04  0.0000E+00  0.0000E+00  0.0000E+00  9.0000E+01  9.0000E+01  9.0000E+01  0.0000E+00  1.7833E+00

  rolling  2.2691E+04  2.8579E+02  8.5687E+03 -5.5065E+03  1.3342E+03  4.2091E+03  6.6890E+03  1.8430E+03  0.0000E+00
 averages  2.5428E+04  0.0000E+00  2.0691E+04 -1.8973E+04 -1.8944E+03  4.1558E+04  0.0000E+00  0.0000E+00  0.0000E+00
           4.3695E+04  0.0000E+00  0.0000E+00  0.0000E+00  9.0000E+01  9.0000E+01  9.0000E+01  0.0000E+00  9.7721E-01
 ------------------------------------------------------------------------------------------------------------------------
     6200  2.2691E+04  2.9214E+02  8.2757E+03 -5.4877E+03  1.3277E+03  3.9687E+03  6.6633E+03  1.8037E+03  0.0000E+00
 620.000f  2.4604E+04  0.0000E+00  2.3866E+04 -1.9340E+04 -1.8854E+03  4.5091E+04  0.0000E+00  0.0000E+00  0.0000E+00
   8.237m  4.3695E+04  0.0000E+00  0.0000E+00  0.0000E+00  9.0000E+01  9.0000E+01  9.0000E+01  0.0000E+00  6.5938E-01

  rolling  2.2692E+04  2.8600E+02  8.5712E+03 -5.4850E+03  1.3294E+03  4.2650E+03  6.6511E+03  1.8109E+03  0.0000E+00
 averages  2.4213E+04  0.0000E+00  2.4395E+04 -1.9300E+04 -1.8878E+03  4.5583E+04  0.0000E+00  0.0000E+00  0.0000E+00
           4.3695E+04  0.0000E+00  0.0000E+00  0.0000E+00  9.0000E+01  9.0000E+01  9.0000E+01  0.0000E+00  5.1673E-01
 ------------------------------------------------------------------------------------------------------------------------
     6300  2.2691E+04  2.9123E+02  8.3537E+03 -5.4826E+03  1.3324E+03  4.1747E+03  6.5165E+03  1.8127E+03  0.0000E+00
 630.000f  2.5404E+04  0.0000E+00  2.1474E+04 -1.9497E+04 -1.8892E+03  4.2861E+04  0.0000E+00  0.0000E+00  0.0000E+00
   8.371m  4.3695E+04  0.0000E+00  0.0000E+00  0.0000E+00  9.0000E+01  9.0000E+01  9.0000E+01  0.0000E+00  9.4713E-01

  rolling  2.2691E+04  2.8620E+02  8.5872E+03 -5.4944E+03  1.3293E+03  4.1936E+03  6.7513E+03  1.8073E+03  0.0000E+00
 averages  2.2578E+04  0.0000E+00  2.9398E+04 -1.9315E+04 -1.8841E+03  5.0597E+04  0.0000E+00  0.0000E+00  0.0000E+00
           4.3695E+04  0.0000E+00  0.0000E+00  0.0000E+00  9.0000E+01  9.0000E+01  9.0000E+01  0.0000E+00 -1.0619E-01
 ------------------------------------------------------------------------------------------------------------------------
 ------------------------------------------------------------------------------------------------------------------------

     step     eng_tot    temp_tot     eng_cfg     eng_vdw     eng_cou     eng_bnd     eng_ang     eng_dih     eng_tet
 time          eng_pv    temp_rot     vir_cfg     vir_vdw     vir_cou     vir_bnd     vir_ang     vir_con     vir_tet
 cpu time      volume    temp_shl     eng_shl     vir_shl       alpha        beta       gamma     vir_pmf       press

 ------------------------------------------------------------------------------------------------------------------------
     6400  2.2692E+04  2.7861E+02  9.0278E+03 -5.4313E+03  1.3382E+03  4.3941E+03  6.8824E+03  1.8445E+03  0.0000E+00
 640.000f  2.6542E+04  0.0000E+00  1.6935E+04 -2.0049E+04 -1.9012E+03  3.8885E+04  0.0000E+00  0.0000E+00  0.0000E+00
   8.502m  4.3695E+04  0.0000E+00  0.0000E+00  0.0000E+00  9.0000E+01  9.0000E+01  9.0000E+01  0.0000E+00  1.3572E+00

  rolling  2.2691E+04  2.8360E+02  8.7556E+03 -5.4489E+03  1.3374E+03  4.1711E+03  6.8615E+03  1.8346E+03  0.0000E+00
 averages  2.5715E+04  0.0000E+00  1.9844E+04 -1.9878E+04 -1.8978E+03  4.1620E+04  0.0000E+00  0.0000E+00  0.0000E+00
           4.3695E+04  0.0000E+00  0.0000E+00  0.0000E+00  9.0000E+01  9.0000E+01  9.0000E+01  0.0000E+00  1.0558E+00
[...]
   4.840p  2.5503E+04  0.0000E+00  2.7376E+04 -1.8454E+04 -1.8050E+03  4.7636E+04  0.0000E+00  0.0000E+00  0.0000E+00
   1.059h  4.3695E+04  0.0000E+00  0.0000E+00  0.0000E+00  9.0000E+01  9.0000E+01  9.0000E+01  0.0000E+00  3.3999E-01

  rolling  2.2693E+04  2.9928E+02  9.7084E+03 -5.5116E+03  1.3061E+03  4.6224E+03  7.3475E+03  1.9441E+03  0.0000E+00
 averages  2.4394E+04  0.0000E+00  3.0575E+04 -1.8645E+04 -1.8003E+03  5.1020E+04  0.0000E+00  0.0000E+00  0.0000E+00
           4.3695E+04  0.0000E+00  0.0000E+00  0.0000E+00  9.0000E+01  9.0000E+01  9.0000E+01  0.0000E+00 -9.0367E-02
 ------------------------------------------------------------------------------------------------------------------------
    48500  2.2693E+04  3.0479E+02  9.3183E+03 -5.5398E+03  1.3023E+03  4.5084E+03  7.1175E+03  1.9298E+03  0.0000E+00
   4.850p  2.5213E+04  0.0000E+00  2.8321E+04 -1.8140E+04 -1.7978E+03  4.8260E+04  0.0000E+00  0.0000E+00  0.0000E+00
   1.062h  4.3695E+04  0.0000E+00  0.0000E+00  0.0000E+00  9.0000E+01  9.0000E+01  9.0000E+01  0.0000E+00  2.6013E-01

  rolling  2.2693E+04  3.0057E+02  9.5670E+03 -5.5321E+03  1.3036E+03  4.6035E+03  7.2663E+03  1.9257E+03  0.0000E+00
 averages  2.4714E+04  0.0000E+00  2.9513E+04 -1.8261E+04 -1.7996E+03  4.9573E+04  0.0000E+00  0.0000E+00  0.0000E+00
           4.3695E+04  0.0000E+00  0.0000E+00  0.0000E+00  9.0000E+01  9.0000E+01  9.0000E+01  0.0000E+00  5.8617E-02
 ------------------------------------------------------------------------------------------------------------------------
    48600  2.2693E+04  2.9203E+02  9.8775E+03 -5.4844E+03  1.3070E+03  4.6878E+03  7.4178E+03  1.9494E+03  0.0000E+00
   4.860p  2.4132E+04  0.0000E+00  3.0060E+04 -1.8942E+04 -1.7974E+03  5.0800E+04  0.0000E+00  0.0000E+00  0.0000E+00
   1.064h  4.3695E+04  0.0000E+00  0.0000E+00  0.0000E+00  9.0000E+01  9.0000E+01  9.0000E+01  0.0000E+00 -1.1631E-01

  rolling  2.2693E+04  2.9805E+02  9.6149E+03 -5.4971E+03  1.3044E+03  4.6499E+03  7.2149E+03  1.9429E+03  0.0000E+00
 averages  2.3354E+04  0.0000E+00  3.3110E+04 -1.8733E+04 -1.7964E+03  5.3639E+04  0.0000E+00  0.0000E+00  0.0000E+00
           4.3695E+04  0.0000E+00  0.0000E+00  0.0000E+00  9.0000E+01  9.0000E+01  9.0000E+01  0.0000E+00 -4.2248E-01
 ------------------------------------------------------------------------------------------------------------------------
    48700  2.2693E+04  2.9538E+02  9.6363E+03 -5.5434E+03  1.3058E+03  4.6772E+03  7.2639E+03  1.9327E+03  0.0000E+00
   4.870p  2.5927E+04  0.0000E+00  2.4788E+04 -1.8100E+04 -1.7947E+03  4.4683E+04  0.0000E+00  0.0000E+00  0.0000E+00
   1.066h  4.3695E+04  0.0000E+00  0.0000E+00  0.0000E+00  9.0000E+01  9.0000E+01  9.0000E+01  0.0000E+00  5.8457E-01

  rolling  2.2693E+04  2.9902E+02  9.4913E+03 -5.5184E+03  1.3062E+03  4.4809E+03  7.2812E+03  1.9413E+03  0.0000E+00
 averages  2.5501E+04  0.0000E+00  2.6538E+04 -1.8460E+04 -1.7967E+03  4.6795E+04  0.0000E+00  0.0000E+00  0.0000E+00
           4.3695E+04  0.0000E+00  0.0000E+00  0.0000E+00  9.0000E+01  9.0000E+01  9.0000E+01  0.0000E+00  4.1117E-01
 ------------------------------------------------------------------------------------------------------------------------
 ------------------------------------------------------------------------------------------------------------------------

     step     eng_tot    temp_tot     eng_cfg     eng_vdw     eng_cou     eng_bnd     eng_ang     eng_dih     eng_tet
 time          eng_pv    temp_rot     vir_cfg     vir_vdw     vir_cou     vir_bnd     vir_ang     vir_con     vir_tet
 cpu time      volume    temp_shl     eng_shl     vir_shl       alpha        beta       gamma     vir_pmf       press

 ------------------------------------------------------------------------------------------------------------------------
    48800  2.2693E+04  3.0189E+02  9.2401E+03 -5.5614E+03  1.3033E+03  4.3588E+03  7.2471E+03  1.8923E+03  0.0000E+00
   4.880p  2.1438E+04  0.0000E+00  3.8690E+04 -1.8019E+04 -1.7892E+03  5.8499E+04  0.0000E+00  0.0000E+00  0.0000E+00
   1.068h  4.3695E+04  0.0000E+00  0.0000E+00  0.0000E+00  9.0000E+01  9.0000E+01  9.0000E+01  0.0000E+00 -1.0723E+00

  rolling  2.2693E+04  2.9613E+02  9.5627E+03 -5.5500E+03  1.3055E+03  4.5208E+03  7.3665E+03  1.9199E+03  0.0000E+00
 averages  2.5252E+04  0.0000E+00  2.6777E+04 -1.8083E+04 -1.7940E+03  4.6654E+04  0.0000E+00  0.0000E+00  0.0000E+00
           4.3695E+04  0.0000E+00  0.0000E+00  0.0000E+00  9.0000E+01  9.0000E+01  9.0000E+01  0.0000E+00  3.4518E-01
 ------------------------------------------------------------------------------------------------------------------------
    48900  2.2693E+04  3.0011E+02  9.2602E+03 -5.5364E+03  1.3013E+03  4.5046E+03  7.1560E+03  1.8347E+03  0.0000E+00
   4.890p  2.1373E+04  0.0000E+00  3.8501E+04 -1.8387E+04 -1.7939E+03  5.8682E+04  0.0000E+00  0.0000E+00  0.0000E+00
   1.070h  4.3695E+04  0.0000E+00  0.0000E+00  0.0000E+00  9.0000E+01  9.0000E+01  9.0000E+01  0.0000E+00 -1.0709E+00

  rolling  2.2693E+04  2.9697E+02  9.4506E+03 -5.5300E+03  1.3024E+03  4.6401E+03  7.1810E+03  1.8571E+03  0.0000E+00
 averages  2.1584E+04  0.0000E+00  3.7655E+04 -1.8477E+04 -1.7910E+03  5.7923E+04  0.0000E+00  0.0000E+00  0.0000E+00
           4.3695E+04  0.0000E+00  0.0000E+00  0.0000E+00  9.0000E+01  9.0000E+01  9.0000E+01  0.0000E+00 -1.0043E+00
 ------------------------------------------------------------------------------------------------------------------------
    49000  2.2693E+04  2.9569E+02  9.4149E+03 -5.5790E+03  1.3083E+03  4.6407E+03  7.2012E+03  1.8438E+03  0.0000E+00
   4.900p  2.6464E+04  0.0000E+00  2.2590E+04 -1.7725E+04 -1.8016E+03  4.2116E+04  0.0000E+00  0.0000E+00  0.0000E+00
   1.073h  4.3695E+04  0.0000E+00  0.0000E+00  0.0000E+00  9.0000E+01  9.0000E+01  9.0000E+01  0.0000E+00  8.6329E-01

  rolling  2.2693E+04  2.9657E+02  9.4031E+03 -5.5374E+03  1.3050E+03  4.5560E+03  7.2419E+03  1.8377E+03  0.0000E+00
 averages  2.4761E+04  0.0000E+00  2.7882E+04 -1.8314E+04 -1.7989E+03  4.7994E+04  0.0000E+00  0.0000E+00  0.0000E+00
           4.3695E+04  0.0000E+00  0.0000E+00  0.0000E+00  9.0000E+01  9.0000E+01  9.0000E+01  0.0000E+00  2.1267E-01
 ------------------------------------------------------------------------------------------------------------------------
    49100  2.2693E+04  2.9682E+02  9.2965E+03 -5.5250E+03  1.3094E+03  4.6520E+03  7.0383E+03  1.8218E+03  0.0000E+00
   4.910p  2.6733E+04  0.0000E+00  2.1710E+04 -1.8640E+04 -1.8039E+03  4.2154E+04  0.0000E+00  0.0000E+00  0.0000E+00
   1.075h  4.3695E+04  0.0000E+00  0.0000E+00  0.0000E+00  9.0000E+01  9.0000E+01  9.0000E+01  0.0000E+00  9.8733E-01

  rolling  2.2693E+04  2.9672E+02  9.3318E+03 -5.5463E+03  1.3098E+03  4.5430E+03  7.1894E+03  1.8359E+03  0.0000E+00
 averages  2.6013E+04  0.0000E+00  2.3950E+04 -1.8246E+04 -1.7998E+03  4.3996E+04  0.0000E+00  0.0000E+00  0.0000E+00
           4.3695E+04  0.0000E+00  0.0000E+00  0.0000E+00  9.0000E+01  9.0000E+01  9.0000E+01  0.0000E+00  7.0603E-01
 ------------------------------------------------------------------------------------------------------------------------
    49200  2.2693E+04  2.9419E+02  9.3677E+03 -5.5095E+03  1.3042E+03  4.4544E+03  7.2699E+03  1.8489E+03  0.0000E+00
   4.920p  2.5002E+04  0.0000E+00  2.6460E+04 -1.8899E+04 -1.7944E+03  4.7153E+04  0.0000E+00  0.0000E+00  0.0000E+00
   1.077h  4.3695E+04  0.0000E+00  0.0000E+00  0.0000E+00  9.0000E+01  9.0000E+01  9.0000E+01  0.0000E+00  3.6073E-01

  rolling  2.2693E+04  2.9757E+02  9.2287E+03 -5.5189E+03  1.3048E+03  4.4938E+03  7.1168E+03  1.8323E+03  0.0000E+00
 averages  2.3633E+04  0.0000E+00  3.0993E+04 -1.8771E+04 -1.7968E+03  5.1560E+04  0.0000E+00  0.0000E+00  0.0000E+00
           4.3695E+04  0.0000E+00  0.0000E+00  0.0000E+00  9.0000E+01  9.0000E+01  9.0000E+01  0.0000E+00 -1.6391E-01
 ------------------------------------------------------------------------------------------------------------------------
    49300  2.2692E+04  2.9062E+02  9.4921E+03 -5.4294E+03  1.3099E+03  4.4124E+03  7.3547E+03  1.8446E+03  0.0000E+00
   4.930p  2.4777E+04  0.0000E+00  2.6619E+04 -2.0089E+04 -1.7939E+03  4.8503E+04  0.0000E+00  0.0000E+00  0.0000E+00
   1.079h  4.3695E+04  0.0000E+00  0.0000E+00  0.0000E+00  9.0000E+01  9.0000E+01  9.0000E+01  0.0000E+00  2.9630E-01

  rolling  2.2693E+04  2.9181E+02  9.4588E+03 -5.4732E+03  1.3053E+03  4.5523E+03  7.2232E+03  1.8513E+03  0.0000E+00
 averages  2.2585E+04  0.0000E+00  3.3389E+04 -1.9418E+04 -1.7907E+03  5.4598E+04  0.0000E+00  0.0000E+00  0.0000E+00
           4.3695E+04  0.0000E+00  0.0000E+00  0.0000E+00  9.0000E+01  9.0000E+01  9.0000E+01  0.0000E+00 -5.3529E-01
 ------------------------------------------------------------------------------------------------------------------------
    49400  2.2692E+04  2.9324E+02  9.3166E+03 -5.4579E+03  1.3071E+03  4.5090E+03  7.1303E+03  1.8282E+03  0.0000E+00
   4.940p  2.6996E+04  0.0000E+00  2.0088E+04 -1.9780E+04 -1.7912E+03  4.1659E+04  0.0000E+00  0.0000E+00  0.0000E+00
   1.081h  4.3695E+04  0.0000E+00  0.0000E+00  0.0000E+00  9.0000E+01  9.0000E+01  9.0000E+01  0.0000E+00  1.1455E+00

  rolling  2.2692E+04  2.9233E+02  9.3836E+03 -5.4395E+03  1.3094E+03  4.4719E+03  7.2127E+03  1.8292E+03  0.0000E+00
 averages  2.5826E+04  0.0000E+00  2.3574E+04 -1.9995E+04 -1.7940E+03  4.5364E+04  0.0000E+00  0.0000E+00  0.0000E+00
           4.3695E+04  0.0000E+00  0.0000E+00  0.0000E+00  9.0000E+01  9.0000E+01  9.0000E+01  0.0000E+00  6.9832E-01
 ------------------------------------------------------------------------------------------------------------------------
    49500  2.2692E+04  2.9098E+02  9.3911E+03 -5.4863E+03  1.3033E+03  4.5687E+03  7.1431E+03  1.8623E+03  0.0000E+00
   4.950p  2.2776E+04  0.0000E+00  3.2408E+04 -1.9373E+04 -1.7926E+03  5.3573E+04  0.0000E+00  0.0000E+00  0.0000E+00
   1.083h  4.3695E+04  0.0000E+00  0.0000E+00  0.0000E+00  9.0000E+01  9.0000E+01  9.0000E+01  0.0000E+00 -4.2295E-01

  rolling  2.2692E+04  2.9290E+02  9.3137E+03 -5.4686E+03  1.3059E+03  4.4488E+03  7.1806E+03  1.8470E+03  0.0000E+00
 averages  2.7665E+04  0.0000E+00  1.7987E+04 -1.9586E+04 -1.7949E+03  3.9368E+04  0.0000E+00  0.0000E+00  0.0000E+00
           4.3695E+04  0.0000E+00  0.0000E+00  0.0000E+00  9.0000E+01  9.0000E+01  9.0000E+01  0.0000E+00  1.4039E+00
 ------------------------------------------------------------------------------------------------------------------------
 ------------------------------------------------------------------------------------------------------------------------

     step     eng_tot    temp_tot     eng_cfg     eng_vdw     eng_cou     eng_bnd     eng_ang     eng_dih     eng_tet
 time          eng_pv    temp_rot     vir_cfg     vir_vdw     vir_cou     vir_bnd     vir_ang     vir_con     vir_tet
 cpu time      volume    temp_shl     eng_shl     vir_shl       alpha        beta       gamma     vir_pmf       press

 ------------------------------------------------------------------------------------------------------------------------
    49600  2.2692E+04  2.9375E+02  9.2210E+03 -5.5062E+03  1.2992E+03  4.5370E+03  7.0366E+03  1.8544E+03  0.0000E+00
   4.960p  2.0166E+04  0.0000E+00  4.0420E+04 -1.9210E+04 -1.7896E+03  6.1420E+04  0.0000E+00  0.0000E+00  0.0000E+00
   1.086h  4.3695E+04  0.0000E+00  0.0000E+00  0.0000E+00  9.0000E+01  9.0000E+01  9.0000E+01  0.0000E+00 -1.3901E+00

  rolling  2.2692E+04  2.9368E+02  9.2398E+03 -5.4831E+03  1.3036E+03  4.5207E+03  7.0409E+03  1.8577E+03  0.0000E+00
 averages  2.3374E+04  0.0000E+00  3.0833E+04 -1.9450E+04 -1.7945E+03  5.2077E+04  0.0000E+00  0.0000E+00  0.0000E+00
           4.3695E+04  0.0000E+00  0.0000E+00  0.0000E+00  9.0000E+01  9.0000E+01  9.0000E+01  0.0000E+00 -1.9230E-01
 ------------------------------------------------------------------------------------------------------------------------
    49700  2.2692E+04  2.9190E+02  9.2895E+03 -5.4587E+03  1.3014E+03  4.4214E+03  7.1390E+03  1.8864E+03  0.0000E+00
   4.970p  2.5653E+04  0.0000E+00  2.3701E+04 -1.9903E+04 -1.7940E+03  4.5397E+04  0.0000E+00  0.0000E+00  0.0000E+00
   1.088h  4.3695E+04  0.0000E+00  0.0000E+00  0.0000E+00  9.0000E+01  9.0000E+01  9.0000E+01  0.0000E+00  6.7706E-01

  rolling  2.2692E+04  2.9079E+02  9.3557E+03 -5.4898E+03  1.2995E+03  4.5349E+03  7.1437E+03  1.8675E+03  0.0000E+00
 averages  2.4335E+04  0.0000E+00  2.7578E+04 -1.9467E+04 -1.7915E+03  4.8837E+04  0.0000E+00  0.0000E+00  0.0000E+00
           4.3695E+04  0.0000E+00  0.0000E+00  0.0000E+00  9.0000E+01  9.0000E+01  9.0000E+01  0.0000E+00  1.7853E-01
 ------------------------------------------------------------------------------------------------------------------------
    49800  2.2692E+04  2.8938E+02  9.4005E+03 -5.4136E+03  1.3056E+03  4.4986E+03  7.1039E+03  1.9060E+03  0.0000E+00
   4.980p  2.8032E+04  0.0000E+00  1.6269E+04 -2.0564E+04 -1.8009E+03  3.8633E+04  0.0000E+00  0.0000E+00  0.0000E+00
   1.090h  4.3695E+04  0.0000E+00  0.0000E+00  0.0000E+00  9.0000E+01  9.0000E+01  9.0000E+01  0.0000E+00  1.5749E+00

  rolling  2.2692E+04  2.8908E+02  9.4219E+03 -5.4136E+03  1.3047E+03  4.4716E+03  7.1598E+03  1.8993E+03  0.0000E+00
 averages  2.6482E+04  0.0000E+00  2.0908E+04 -2.0551E+04 -1.7990E+03  4.3258E+04  0.0000E+00  0.0000E+00  0.0000E+00
           4.3695E+04  0.0000E+00  0.0000E+00  0.0000E+00  9.0000E+01  9.0000E+01  9.0000E+01  0.0000E+00  9.9103E-01
 ------------------------------------------------------------------------------------------------------------------------
    49900  2.2692E+04  2.8949E+02  9.3903E+03 -5.4200E+03  1.3006E+03  4.2923E+03  7.2727E+03  1.9448E+03  0.0000E+00
   4.990p  2.9051E+04  0.0000E+00  1.3208E+04 -2.0519E+04 -1.7979E+03  3.5524E+04  0.0000E+00  0.0000E+00  0.0000E+00
   1.092h  4.3695E+04  0.0000E+00  0.0000E+00  0.0000E+00  9.0000E+01  9.0000E+01  9.0000E+01  0.0000E+00  1.9589E+00

  rolling  2.2692E+04  2.9082E+02  9.3256E+03 -5.4110E+03  1.3005E+03  4.4126E+03  7.1016E+03  1.9218E+03  0.0000E+00
 averages  2.6130E+04  0.0000E+00  2.2108E+04 -2.0632E+04 -1.7946E+03  4.4535E+04  0.0000E+00  0.0000E+00  0.0000E+00
           4.3695E+04  0.0000E+00  0.0000E+00  0.0000E+00  9.0000E+01  9.0000E+01  9.0000E+01  0.0000E+00  8.6273E-01
 ------------------------------------------------------------------------------------------------------------------------
    50000  2.2692E+04  2.9086E+02  9.3277E+03 -5.4474E+03  1.3056E+03  4.3730E+03  7.1721E+03  1.9244E+03  0.0000E+00
   5.000p  2.6148E+04  0.0000E+00  2.2071E+04 -2.0199E+04 -1.8092E+03  4.4079E+04  0.0000E+00  0.0000E+00  0.0000E+00
   1.094h  4.3695E+04  0.0000E+00  0.0000E+00  0.0000E+00  9.0000E+01  9.0000E+01  9.0000E+01  0.0000E+00  8.6786E-01

  rolling  2.2692E+04  2.8817E+02  9.4583E+03 -5.4428E+03  1.3006E+03  4.3864E+03  7.2697E+03  1.9443E+03  0.0000E+00
 averages  2.4563E+04  0.0000E+00  2.6546E+04 -2.0241E+04 -1.8000E+03  4.8587E+04  0.0000E+00  0.0000E+00  0.0000E+00
           4.3695E+04  0.0000E+00  0.0000E+00  0.0000E+00  9.0000E+01  9.0000E+01  9.0000E+01  0.0000E+00  2.7484E-01
 ------------------------------------------------------------------------------------------------------------------------


 run terminating. elapsed cpu time =   3.93961E+03, job time = *******d, close time = 1000.00s



 run terminated after   50000 steps. final averages calculated over   50000 steps.


 ------------------------------------------------------------------------------------------------------------------------

     step     eng_tot    temp_tot     eng_cfg     eng_vdw     eng_cou     eng_bnd     eng_ang     eng_dih     eng_tet
 time          eng_pv    temp_rot     vir_cfg     vir_vdw     vir_cou     vir_bnd     vir_ang     vir_con     vir_tet
 cpu time      volume    temp_shl     eng_shl     vir_shl       alpha        beta       gamma     vir_pmf       press

 ------------------------------------------------------------------------------------------------------------------------
    50000  2.2692E+04  2.9998E+02  9.5836E+03 -5.3924E+03  1.3187E+03  4.5352E+03  7.1741E+03  1.9481E+03  0.0000E+00
   5.000p  2.6145E+04  0.0000E+00  2.5121E+04 -2.0760E+04 -1.8621E+03  4.7743E+04  0.0000E+00  0.0000E+00  0.0000E+00
   1.094h  4.3695E+04  0.0000E+00  0.0000E+00  0.0000E+00  9.0000E+01  9.0000E+01  9.0000E+01  0.0000E+00  6.0025E-01

  r.m.s.   6.3718E-01  1.0065E+01  4.8208E+02  8.2662E+01  1.1087E+01  1.9973E+02  2.5457E+02  7.6703E+01  0.0000E+00
 fluctn.   2.5947E+03  0.0000E+00  6.7824E+03  1.5405E+03  3.6255E+01  6.3980E+03  0.0000E+00  0.0000E+00  0.0000E+00
           2.8887E-10  0.0000E+00  0.0000E+00  0.0000E+00  2.0318E-13  2.0318E-13  2.0318E-13  0.0000E+00  8.6161E-01
 ------------------------------------------------------------------------------------------------------------------------


            Approximate 3D Diffusion  coefficients (10^-9 m^2 / s)

            atom        D 
            CT         4.1159E+00
            HC         4.9612E+00


                Average pressure tensor                                       r.m.s. fluctuations 

           5.8075E-01  2.1905E-02  3.0836E-02                          1.1734E+00  6.5071E-01  7.2372E-01
           2.1905E-02  5.9036E-01  2.2618E-02                          6.5071E-01  1.2325E+00  7.0606E-01
           3.0836E-02  2.2618E-02  6.2964E-01                          7.2372E-01  7.0606E-01  1.1847E+00

            trace/3.   6.0025E-01


 sample of final configuration

      i       x(i)        y(i)        z(i)       vx(i)       vy(i)       vz(i)       fx(i)       fy(i)       fz(i)


      1 -5.7173E+00 -5.2242E+00 -5.5485E+00  3.9845E+00  2.1070E+00 -9.9500E-01 -1.1870E+02 -6.5209E+03  5.9526E+03
    201 -4.7787E+00 -1.0928E+01 -8.6303E+00  6.6994E+00  3.8309E-01 -2.2795E-01  1.0627E+04  1.6116E+04  5.1770E+03
    401  5.6990E+00  6.3972E+00 -1.4166E+01  4.4907E+00  5.2067E+00 -3.1938E+00 -2.6650E+03 -9.0903E+02  1.9907E+03
    601  1.5294E+01  2.2894E+00 -4.2333E+00  4.1636E+00 -3.6976E+00 -1.0616E+00  2.7291E+02  1.0960E+04 -3.0394E+03
    801  9.5793E+00  1.0616E+01  3.4433E+00  5.9489E+00  4.3192E+00 -1.7092E-01  3.9446E+03 -9.2644E+03 -2.0894E+04
   1001 -3.9488E+00 -9.2301E+00 -3.7301E+00 -3.4423E+00  5.3923E+00  5.3608E-02 -8.6249E+03 -1.2632E+04 -2.5321E+03
   1201 -5.2028E+00  1.8947E+01  1.4708E+01 -3.3578E+00 -5.8715E+00 -1.1052E-01  1.8242E+03 -1.7694E+04 -9.1261E+03
   1401  7.5134E+00  1.0872E+01 -5.8926E+00  3.0797E+00  2.5753E+00  3.5726E+00  1.7260E+04 -1.9124E+03  1.6828E+04
   1601  1.2127E+01 -1.8133E+01 -7.3107E-01 -2.3716E+00  4.0631E+00 -1.5827E+00 -9.0376E+03 -4.0924E+03 -1.0661E+04
   1801  1.6470E-01 -5.7558E+00  6.8307E+00  5.9908E+00  3.0035E+00 -5.8761E-02  1.5582E+04  1.0386E+04 -8.7531E+03
   2001 -9.1002E+00 -1.5200E+01 -1.2182E+01  6.3546E+00 -5.8390E+00 -4.2276E+00  1.8486E+04 -9.9584E+03  6.3449E+01
   2201  1.1493E+01 -2.1255E+01  6.7608E+00 -8.5139E+00  1.1868E+00 -1.6185E+00  3.1165E+04  4.2392E+03  2.8961E+03
   2401  1.1590E+01 -9.9646E+00 -5.0408E+00  5.6045E+00 -5.9409E+00 -8.2600E-01 -8.8539E+03 -3.1136E+03 -1.3436E+04
   2601 -8.6777E+00 -2.4074E+00 -3.7898E-01  2.2519E+00  5.3910E+00 -1.0959E+00  3.1081E+03 -1.4259E+03 -1.4324E+04
   2801  4.7677E+00 -2.6043E+00  3.1047E+00  3.1091E+00  7.9426E+00 -8.5233E+00 -3.1704E+03  1.7598E+04  9.8272E+02
   3001  1.0388E+01 -1.3388E+01 -1.8230E+00  8.6758E-01 -6.6965E-01  1.8931E+00  8.2710E+03 -8.4696E+03 -7.0820E+03
   3201  4.2609E+00  1.1385E+00 -1.2688E+01  1.3094E-01 -5.4520E+00  6.2764E+00 -5.4747E+03 -8.8902E+03  8.0758E+03
   3401  8.1419E+00 -4.8971E+00  9.3203E-01  1.6273E+01 -1.9480E+00  3.7471E+00  4.5455E+03 -1.6310E+04  1.4308E+04
   3601  1.0191E+01  1.6335E+01  2.3556E+00 -3.3357E-01 -7.6621E-01 -3.2241E+00  1.1793E+04 -5.8442E+03  1.0070E+04
   3801  8.5501E+00 -2.0478E+01 -6.7597E+00  4.6584E+00  4.1466E+00  1.2820E+00 -5.0974E+03  5.9300E+03  1.1659E+04

 time elapsed since job start =        3939.645 seconds

