# Bulk Water Properties
# Trajectory calculated using DL_POLY Classic v1.9

# Potential uses SPC/Fw parameters:
# 
# Yujie Wu, Harald L. Tepper and Gregory A. Voth
# "Flexible simple point-charge water model with improved liquid-state properties", Journal of Chemical Physics 124 024503 (2006)
# http://dx.doi.org/10.1063/1.2136877
# 
#	  sigma(O) =    3.165492 Angstroms
#	epsilon(O) =    0.6503	 kJ/mol
#	 charge(O) =   -0.82	 e
#	 charge(H) =    0.41	 e
#	    k(O-H) = 4431.53	 kJ mol-1 Angstrom-2
#	    r(O-H) =    1.0	 Angstroms
#	  k(H-O-H) =  317.5656	 kJ mol-1 radian-2
#     theta(H-O-H) =  113.24	 degrees

#------------------------#
#  Define Master Terms   #
#------------------------#

Master
  Bond   OH   Harmonic  4431.53  1.0
  Angle  HOH  Harmonic  317.5656 113.24
EndMaster

#------------------------#
#     Define Species     #
#------------------------#

Species 'Water'
  # Atoms
  Atom    1    H     0.757    0.013    0.217   'HW'
  Atom    2    O     0.015   -0.009   -0.373   'OW'
  Atom    3    H    -0.771   -0.003    0.157   'HW'

  # Intramolecular Terms
  Bond  1    2  @OH
  Bond  3    2  @OH
  Angle 1    2    3  @HOH

  # Isotopologues
  Isotopologue  'Natural'  OW=0  HW=0
  Isotopologue  'Deuteriated'  OW=0  HW=2

  # Analysis Sites
  Site  'origin'
    Origin  2
    XAxis  1 3
    YAxis  3
  EndSite
  Site  'O'
    Origin  2
  EndSite
  Site  'H1'
    Origin  1
  EndSite
  Site  'H2'
    Origin  3
  EndSite
  Site  'COM'
    Origin  1  2  3
    OriginMassWeighted  True
  EndSite
EndSpecies

#------------------------#
#     Pair Potentials    #
#------------------------#

PairPotentials
  Range  9.000000
  Delta  0.050000
  Parameters  'OW'  -0.82      0.65	3.165492
  Parameters  'HW'  0.41       0.0      0.0
  GenerateAll  'LJ'
EndPairPotentials

#------------------------#
#  Define Configuration  #
#------------------------#

Configuration  'Bulk'
  Density  9.99999642E-02 atoms/A3
  Multiplier  267
  SpeciesInfo  'Water'  1.0
EndConfiguration

#------------------------#
#   Define Processing    #
#------------------------#

Layer  'Processing'

# Trajectory Processing
Module  Import
  Configuration  'Bulk'
  ReadTrajectory  True
  # Trajectory file contains 95 frames
  TrajectoryFile  xyz  '../_data/water267-dlpoly/water-267-298K.xyz'
EndModule

# Oxygen-oxygen radial distribution function
Module  CalculateRDF  'RDF(OW-OW)'
  Configuration  'Bulk'
  OriginSite  Water  'O'
  OtherSite  Water  'O'
  RMin  0.0
  RMax  20.0
  BinWidth  0.01
EndModule

# Oxygen-oxygen radial distribution function (using Analysis module)
Module  Analyse  'RDF(OW-OW)-Analyser'
  Configuration  'Bulk'
  Analyser
    Select  'O1'
      Site  Water  'O'
      ForEach
        Select  'O2'
          Site  Water  'O'
          ExcludeSameMolecule  'O1'
          ForEach
            Calculate  'rOO'
              Distance  'O1'  'O2'
            EndCalculate
            Collect1D  'HistoOO'
              QuantityX  'rOO'
              RangeX  0.0  20.0  0.01
            EndCollect1D
          EndForEach
        EndSelect
      EndForEach
    EndSelect
    Process1D  'RDF'
      SourceData  'HistoOO'
      NSites  'O1'
      SphericalShellVolume  On
      LabelValue  'gOO(r)'
      LabelX  'r, Angstroms'
    EndProcess1D
  EndAnalyser
EndModule

Module DataTest
  Frequency  95
  Target  'RDF(OW-OW)'
  Data1D  RDF(OW-OW)_Bulk  xy  '../_data/water267-dlpoly/water-267-298K.aardf1_02_02'
  Threshold  1.4
EndModule

# Hydrogen-hydrogen (H1-H2, 1-3) radial distribution function, excluding intramolecular correlations
Module  CalculateRDF  'RDF(H1-H2)'
  Configuration  'Bulk'
  OriginSite  Water  'H1'
  OtherSite  Water  'H2'
  ExcludeSameMolecule  On
  RMin  0.0
  RMax  20.0
  BinWidth  0.01
EndModule

Module DataTest
  Frequency  95
  Target  'RDF(H1-H2)'
  Data1D  RDF(H1-H2)_Bulk  xy  '../_data/water267-dlpoly/water-267-298K.aardf1_01_03'
  Threshold  1.1
EndModule

# Center-of-mass radial distribution function
Module  CalculateRDF  'RDF(COM-COM)'
  Configuration  'Bulk'
  OriginSite  Water  'COM'
  OtherSite  Water  'COM'
  ExcludeSameMolecule  On
  RMin  0.0
  RMax  20.0
  BinWidth  0.05
EndModule

Module DataTest
  Frequency  95
  Target  'RDF(COM-COM)'
  Data1D  RDF(COM-COM)_Bulk  xy  '../_data/water267-dlpoly/water-267-298K.rdf11'
  Threshold  0.5
EndModule

EndLayer

Simulation
  # Prevent writing of restart file
  RestartFileFrequency  100
EndSimulation

