
                    DL_POLY Classic 1.9

                              Running on    1 nodes


 ************************************************************************************************************************
 ************************************************************************************************************************
 ************************************************************************************************************************
 ***************     DL_POLY CONTROL file                                                                 ***************
 ************************************************************************************************************************
 ************************************************************************************************************************
 ************************************************************************************************************************


 SIMULATION CONTROL PARAMETERS


 simulation temperature           2.9800E+02

 simulation pressure (katm)       1.0133E-03

 Nose-Hoover  (Melchionna) isotropic N-P-T 
 thermostat relaxation time       2.0000E-01
 barostat relaxation time         1.0000E-01

 simulation timestep              5.0000E-04

 selected number of timesteps        50000

 real space cut off               1.5000E+01

 real space cut off (vdw)         1.5000E+01

 border width of Verlet shell     5.0000E-01


 Electrostatics : Shifted Coulombic potential

 trajectory file option on  
 trajectory file start                   0
 trajectory file interval              500
 trajectory file info key                0

 data printing interval                100

 data stacking interval               1000

 statistics file interval             1000

 user allocated job time (d)    ********

 job closure time        (s)    1000.000


SYSTEM SPECIFICATION

 energy units=kjoule/mol 


 number of molecular types               1

 molecular species type                  1


 name of species:             Water                                   

 number of molecules                  1000

 number of atoms/sites                   3


 atomic characteristics:

                      site     name          mass        charge    repeat    freeze

                         1     OW          15.99900    -0.82000         1         0
                         2     HW           1.00800     0.41000         1         0
                         3     HW           1.00800     0.41000         1         0

 number of chemical bonds                2


 chemical bond details:

                            key     index     index                            parameters

                           harm         1         2     4.431530E+03   1.012000E+00   0.000000E+00   0.000000E+00
                           harm         1         3     4.431530E+03   1.012000E+00   0.000000E+00   0.000000E+00

 number of bond angles                   1


 bond angle details:

                            key     index     index     index     f-const       angle

                           harm         2         1         3  3.1756E+02  113.240000    0.000000    0.000000    0.000000    0.000000


 number of specified pair potentials         3


                atom 1  atom 2      key                              parameters


                OW      OW        lj       6.50300E-01  3.16549E+00
                OW      HW        lj       0.00000E+00  0.00000E+00
                HW      HW        lj       0.00000E+00  0.00000E+00

 configuration file name: 

          Bulk                                                                            


 selected image convention               1


 simulation cell vectors


                        31.072330    0.000000    0.000000
                         0.000000   31.072330    0.000000
                         0.000000    0.000000   31.072330


 system volume            30000.0143099    


 total degrees of freedom                      8997.
 rotational degrees of freedom                    0.
 shell pseudo degrees of freedom                  0.


 sample of starting configuration

      i       x(i)        y(i)        z(i)       vx(i)       vy(i)       vz(i)


      1  1.5352E+01 -8.2806E-01 -9.4676E-01  8.0934E+00 -1.8890E+00 -4.1109E+00
    151 -3.5668E+00  1.0740E+01 -3.8823E+00 -7.4039E+00  4.9162E-01  4.9479E-01
    301 -3.1419E+00  1.7834E+00 -3.4247E+00  2.7089E+00 -2.3381E+00  6.2201E-01
    451  2.3710E+00 -1.2613E+01  2.5155E+00 -4.0273E+00 -2.0464E+00 -3.3530E+00
    601 -1.4837E+01  7.3787E+00 -1.5223E+01  4.9219E+00  2.6983E+00  2.3726E+00
    751 -1.5479E+01  1.3896E+01  6.6753E+00 -5.0853E-01 -7.0703E-01  1.7868E-01
    901 -7.9219E+00  1.2971E+01  6.4884E+00 -6.0401E-01 -5.1485E+00  1.0754E+00
   1051 -4.6928E+00 -2.2511E+00  8.5826E+00 -1.8744E+00  2.9155E+00 -3.3431E-01
   1201  9.4657E+00  1.3274E+01 -1.4273E+00 -1.2872E+00 -6.2427E+00  1.0282E-01
   1351  1.2643E+01  1.1700E+01 -9.6485E+00 -3.3515E+00 -4.8402E+00  6.5725E+00
   1501  9.2043E+00  1.3175E+01 -8.5279E+00  1.1413E+00 -4.8059E+00 -1.8762E+00
   1651  1.1933E+01  1.2007E+01  1.0639E+01  2.4427E+00 -5.4902E+00  4.2301E+00
   1801 -5.4327E+00 -2.6936E+00  1.8756E+00 -6.4930E+00  1.7323E+00  1.5906E+00
   1951  8.4058E+00  1.6218E+00 -1.4189E+01  2.5253E+00  5.1643E-01  1.2485E+00
   2101  9.6148E+00  6.3707E+00 -1.5468E+01  1.9310E+00 -6.4210E+00 -3.2296E+00
   2251  2.8214E+00  7.6946E+00  1.1252E+01  1.0970E+01 -2.0671E+00 -1.8882E+00
   2401  5.3280E+00 -4.3284E+00 -9.2942E+00 -8.8976E-01  1.1809E-01  5.4153E-01
   2551  2.8486E+00 -2.1967E+00 -1.4249E+01  6.9388E+00 -3.7737E+00  3.1940E+00
   2701  1.9654E+00  1.6402E+00 -7.4991E+00 -3.8405E+00 -3.2546E+00 -8.1606E-01
   2851 -8.8666E+00  1.4914E+01 -8.6272E-01  1.7548E+00 -1.5394E+00  4.7464E+00


long range correction for: vdw energy    -0.541342E+02
                         : vdw pressure  -0.591426E-01

 time elapsed since job start =           0.015 seconds

 ------------------------------------------------------------------------------------------------------------------------

     step     eng_tot    temp_tot     eng_cfg     eng_vdw     eng_cou     eng_bnd     eng_ang     eng_dih     eng_tet
 time          eng_pv    temp_rot     vir_cfg     vir_vdw     vir_cou     vir_bnd     vir_ang     vir_con     vir_tet
 cpu time      volume    temp_shl     eng_shl     vir_shl       alpha        beta       gamma     vir_pmf       press

 ------------------------------------------------------------------------------------------------------------------------
        1 -1.7723E+04  3.0227E+02 -2.9048E+04  8.1831E+03 -5.1057E+04  2.8267E+03  1.0999E+04  0.0000E+00  0.0000E+00
   0.500f  1.0182E+05  0.0000E+00 -3.3608E+05 -1.9134E+05  5.2121E+04 -1.9686E+05  0.0000E+00  0.0000E+00  0.0000E+00
   0.244s  3.0036E+04  0.0000E+00  0.0000E+00  0.0000E+00  9.0000E+01  9.0000E+01  9.0000E+01  0.0000E+00  6.5235E+01

  rolling -1.7723E+04  3.0227E+02 -2.9048E+04  8.1831E+03 -5.1057E+04  2.8267E+03  1.0999E+04  0.0000E+00  0.0000E+00
 averages  1.0182E+05  0.0000E+00 -3.3608E+05 -1.9134E+05  5.2121E+04 -1.9686E+05  0.0000E+00  0.0000E+00  0.0000E+00
           3.0036E+04  0.0000E+00  0.0000E+00  0.0000E+00  9.0000E+01  9.0000E+01  9.0000E+01  0.0000E+00  6.5235E+01
 ------------------------------------------------------------------------------------------------------------------------
      100 -1.7766E+04  3.8375E+02 -3.2737E+04  7.4464E+03 -5.9378E+04  1.1599E+04  7.5956E+03  0.0000E+00  0.0000E+00
  50.000f -1.1796E+05  0.0000E+00  3.2744E+05 -1.8138E+05  6.0684E+04  4.4814E+05  0.0000E+00  0.0000E+00  0.0000E+00
  15.060s  3.0027E+04  0.0000E+00  0.0000E+00  0.0000E+00  9.0000E+01  9.0000E+01  9.0000E+01  0.0000E+00 -5.4348E+01

  rolling -1.7791E+04  3.9828E+02 -3.3096E+04  7.3173E+03 -5.1316E+04  6.3483E+03  4.5545E+03  0.0000E+00  0.0000E+00
 averages -2.1054E+04  0.0000E+00  3.8359E+04 -1.7925E+05  5.2309E+04  1.6530E+05  0.0000E+00  0.0000E+00  0.0000E+00
           3.0226E+04  0.0000E+00  0.0000E+00  0.0000E+00  9.0000E+01  9.0000E+01  9.0000E+01  0.0000E+00 -1.2463E+00
 ------------------------------------------------------------------------------------------------------------------------
      200 -1.7889E+04  5.0090E+02 -3.8531E+04  7.2764E+03 -5.1114E+04  2.4849E+03  2.8215E+03  0.0000E+00  0.0000E+00
 100.000f -7.6458E+03  0.0000E+00  1.0183E+03 -1.7731E+05  5.2327E+04  1.2600E+05  0.0000E+00  0.0000E+00  0.0000E+00
  29.829s  3.0701E+04  0.0000E+00  0.0000E+00  0.0000E+00  9.0000E+01  9.0000E+01  9.0000E+01  0.0000E+00  6.4860E+00

  rolling -1.7793E+04  4.0685E+02 -3.3786E+04  7.5420E+03 -5.1572E+04  6.0764E+03  4.1677E+03  0.0000E+00  0.0000E+00
 averages -1.7078E+04  0.0000E+00  2.5963E+04 -1.8233E+05  5.2656E+04  1.5563E+05  0.0000E+00  0.0000E+00  0.0000E+00
           3.0202E+04  0.0000E+00  0.0000E+00  0.0000E+00  9.0000E+01  9.0000E+01  9.0000E+01  0.0000E+00  1.1038E+00
 ------------------------------------------------------------------------------------------------------------------------
      300 -1.7819E+04  4.1721E+02 -3.6937E+04  8.1442E+03 -4.8872E+04  2.1386E+03  1.6522E+03  0.0000E+00  0.0000E+00
 150.000f  5.1907E+04  0.0000E+00 -1.8851E+05 -1.9010E+05  4.9804E+04 -4.8218E+04  0.0000E+00  0.0000E+00  0.0000E+00
  44.538s  3.0162E+04  0.0000E+00  0.0000E+00  0.0000E+00  9.0000E+01  9.0000E+01  9.0000E+01  0.0000E+00  3.9794E+01

  rolling -1.7795E+04  4.0264E+02 -3.4236E+04  7.7183E+03 -5.1933E+04  6.1004E+03  3.8777E+03  0.0000E+00  0.0000E+00
 averages -1.9779E+04  0.0000E+00  3.1927E+04 -1.8445E+05  5.3036E+04  1.6334E+05  0.0000E+00  0.0000E+00  0.0000E+00
           3.0242E+04  0.0000E+00  0.0000E+00  0.0000E+00  9.0000E+01  9.0000E+01  9.0000E+01  0.0000E+00 -3.1541E-02
 ------------------------------------------------------------------------------------------------------------------------
      400 -1.7740E+04  2.9369E+02 -3.4242E+04  8.0534E+03 -5.6754E+04  1.2331E+04  2.1271E+03  0.0000E+00  0.0000E+00
 200.000f -1.2868E+05  0.0000E+00  3.3825E+05 -1.8942E+05  5.7719E+04  4.6995E+05  0.0000E+00  0.0000E+00  0.0000E+00
  59.167s  3.0107E+04  0.0000E+00  0.0000E+00  0.0000E+00  9.0000E+01  9.0000E+01  9.0000E+01  0.0000E+00 -5.7389E+01

  rolling -1.7797E+04  3.9497E+02 -3.4757E+04  7.8298E+03 -5.2245E+04  5.9822E+03  3.6765E+03  0.0000E+00  0.0000E+00
 averages -2.0094E+04  0.0000E+00  2.9877E+04 -1.8600E+05  5.3319E+04  1.6255E+05  0.0000E+00  0.0000E+00  0.0000E+00
           3.0223E+04  0.0000E+00  0.0000E+00  0.0000E+00  9.0000E+01  9.0000E+01  9.0000E+01  0.0000E+00  2.2109E-01
 ------------------------------------------------------------------------------------------------------------------------
      500 -1.7823E+04  3.4058E+02 -3.8633E+04  9.1091E+03 -5.1890E+04  1.7381E+03  2.4104E+03  0.0000E+00  0.0000E+00
 250.000f  4.5938E+04  0.0000E+00 -1.9002E+05 -2.0606E+05  5.2864E+04 -3.6818E+04  0.0000E+00  0.0000E+00  0.0000E+00
   1.238m  2.9487E+04  0.0000E+00  0.0000E+00  0.0000E+00  9.0000E+01  9.0000E+01  9.0000E+01  0.0000E+00  3.9923E+01

  rolling -1.7800E+04  3.8455E+02 -3.5322E+04  7.9485E+03 -5.2641E+04  5.8346E+03  3.5361E+03  0.0000E+00  0.0000E+00
 averages -2.0551E+04  0.0000E+00  2.7603E+04 -1.8786E+05  5.3682E+04  1.6178E+05  0.0000E+00  0.0000E+00  0.0000E+00
           3.0149E+04  0.0000E+00  0.0000E+00  0.0000E+00  9.0000E+01  9.0000E+01  9.0000E+01  0.0000E+00  4.8385E-01
 ------------------------------------------------------------------------------------------------------------------------
      600 -1.7890E+04  3.4924E+02 -4.1625E+04  8.9428E+03 -5.6572E+04  3.0595E+03  2.9454E+03  0.0000E+00  0.0000E+00
 300.000f -2.8670E+04  0.0000E+00  2.6449E+04 -2.0335E+05  5.7666E+04  1.7214E+05  0.0000E+00  0.0000E+00  0.0000E+00
   1.486m  2.9492E+04  0.0000E+00  0.0000E+00  0.0000E+00  9.0000E+01  9.0000E+01  9.0000E+01  0.0000E+00 -5.9919E-02

  rolling -1.7804E+04  3.7366E+02 -3.5958E+04  8.1295E+03 -5.3248E+04  5.7386E+03  3.4215E+03  0.0000E+00  0.0000E+00
 averages -2.2373E+04  0.0000E+00  2.9124E+04 -1.9073E+05  5.4295E+04  1.6556E+05  0.0000E+00  0.0000E+00  0.0000E+00
           3.0029E+04  0.0000E+00  0.0000E+00  0.0000E+00  9.0000E+01  9.0000E+01  9.0000E+01  0.0000E+00  3.9620E-02
 ------------------------------------------------------------------------------------------------------------------------
      700 -1.7844E+04  2.7845E+02 -4.1104E+04  9.5794E+03 -6.0951E+04  7.2210E+03  3.0464E+03  0.0000E+00  0.0000E+00
 350.000f -8.8035E+04  0.0000E+00  1.9286E+05 -2.1258E+05  6.2239E+04  3.4320E+05  0.0000E+00  0.0000E+00  0.0000E+00
   1.734m  2.9386E+04  0.0000E+00  0.0000E+00  0.0000E+00  9.0000E+01  9.0000E+01  9.0000E+01  0.0000E+00 -3.1981E+01

  rolling -1.7808E+04  3.6168E+02 -3.6592E+04  8.2964E+03 -5.3787E+04  5.5717E+03  3.3264E+03  0.0000E+00  0.0000E+00
 averages -2.2842E+04  0.0000E+00  2.6387E+04 -1.9326E+05  5.4844E+04  1.6481E+05  0.0000E+00  0.0000E+00  0.0000E+00
           2.9946E+04  0.0000E+00  0.0000E+00  0.0000E+00  9.0000E+01  9.0000E+01  9.0000E+01  0.0000E+00  3.6935E-01
 ------------------------------------------------------------------------------------------------------------------------
 ------------------------------------------------------------------------------------------------------------------------

     step     eng_tot    temp_tot     eng_cfg     eng_vdw     eng_cou     eng_bnd     eng_ang     eng_dih     eng_tet
 time          eng_pv    temp_rot     vir_cfg     vir_vdw     vir_cou     vir_bnd     vir_ang     vir_con     vir_tet
 cpu time      volume    temp_shl     eng_shl     vir_shl       alpha        beta       gamma     vir_pmf       press

 ------------------------------------------------------------------------------------------------------------------------
      800 -1.7805E+04  2.3000E+02 -4.1125E+04  1.0598E+04 -5.6317E+04  1.9153E+03  2.6792E+03  0.0000E+00  0.0000E+00
 400.000f  4.7885E+04  0.0000E+00 -2.2401E+05 -2.2778E+05  5.7418E+04 -5.3651E+04  0.0000E+00  0.0000E+00  0.0000E+00
   1.984m  2.8914E+04  0.0000E+00  0.0000E+00  0.0000E+00  9.0000E+01  9.0000E+01  9.0000E+01  0.0000E+00  4.5573E+01

  rolling -1.7813E+04  3.4999E+02 -3.7235E+04  8.4646E+03 -5.4391E+04  5.4531E+03  3.2381E+03  0.0000E+00  0.0000E+00
 averages -2.4140E+04  0.0000E+00  2.6168E+04 -1.9582E+05  5.5470E+04  1.6652E+05  0.0000E+00  0.0000E+00  0.0000E+00
           2.9862E+04  0.0000E+00  0.0000E+00  0.0000E+00  9.0000E+01  9.0000E+01  9.0000E+01  0.0000E+00  2.3583E-01
 ------------------------------------------------------------------------------------------------------------------------
      900 -1.7845E+04  2.2679E+02 -4.2888E+04  9.7577E+03 -6.2974E+04  7.6629E+03  2.6658E+03  0.0000E+00  0.0000E+00
 450.000f -9.6783E+04  0.0000E+00  2.0410E+05 -2.1511E+05  6.4390E+04  3.5482E+05  0.0000E+00  0.0000E+00  0.0000E+00
   2.235m  2.9215E+04  0.0000E+00  0.0000E+00  0.0000E+00  9.0000E+01  9.0000E+01  9.0000E+01  0.0000E+00 -3.4991E+01

  rolling -1.7817E+04  3.3871E+02 -3.7863E+04  8.6472E+03 -5.5012E+04  5.3399E+03  3.1620E+03  0.0000E+00  0.0000E+00
 averages -2.5389E+04  0.0000E+00  2.5921E+04 -1.9857E+05  5.6117E+04  1.6837E+05  0.0000E+00  0.0000E+00  0.0000E+00
           2.9777E+04  0.0000E+00  0.0000E+00  0.0000E+00  9.0000E+01  9.0000E+01  9.0000E+01  0.0000E+00  1.1318E-01
 ------------------------------------------------------------------------------------------------------------------------
     1000 -1.7896E+04  2.5100E+02 -4.5362E+04  1.0535E+04 -6.0460E+04  2.2146E+03  2.3483E+03  0.0000E+00  0.0000E+00
 500.000f -2.0397E+04  0.0000E+00 -2.7955E+04 -2.2725E+05  6.1320E+04  1.3797E+05  0.0000E+00  0.0000E+00  0.0000E+00
   2.486m  2.8829E+04  0.0000E+00  0.0000E+00  0.0000E+00  9.0000E+01  9.0000E+01  9.0000E+01  0.0000E+00  8.8552E+00

  rolling -1.7821E+04  3.2806E+02 -3.8464E+04  8.8249E+03 -5.5587E+04  5.2023E+03  3.0964E+03  0.0000E+00  0.0000E+00
 averages -2.5993E+04  0.0000E+00  2.3938E+04 -2.0123E+05  5.6687E+04  1.6848E+05  0.0000E+00  0.0000E+00  0.0000E+00
           2.9691E+04  0.0000E+00  0.0000E+00  0.0000E+00  9.0000E+01  9.0000E+01  9.0000E+01  0.0000E+00  3.2673E-01
 ------------------------------------------------------------------------------------------------------------------------
     1100 -1.7885E+04  2.2649E+02 -4.5479E+04  1.0981E+04 -6.0478E+04  1.7419E+03  2.2764E+03  0.0000E+00  0.0000E+00
 550.000f -7.5731E+02  0.0000E+00 -9.1808E+04 -2.3421E+05  6.1115E+04  8.1288E+04  0.0000E+00  0.0000E+00  0.0000E+00
   2.739m  2.8436E+04  0.0000E+00  0.0000E+00  0.0000E+00  9.0000E+01  9.0000E+01  9.0000E+01  0.0000E+00  2.0892E+01

  rolling -1.7829E+04  3.1007E+02 -3.9614E+04  9.1463E+03 -5.6635E+04  4.9857E+03  2.8888E+03  0.0000E+00  0.0000E+00
 averages -2.7884E+04  0.0000E+00  2.2795E+04 -2.0605E+05  5.7733E+04  1.7111E+05  0.0000E+00  0.0000E+00  0.0000E+00
           2.9538E+04  0.0000E+00  0.0000E+00  0.0000E+00  9.0000E+01  9.0000E+01  9.0000E+01  0.0000E+00  2.6099E-01
 ------------------------------------------------------------------------------------------------------------------------
     1200 -1.7851E+04  1.8529E+02 -4.4567E+04  1.0661E+04 -6.5602E+04  7.9218E+03  2.4526E+03  0.0000E+00  0.0000E+00
 600.000f -1.0143E+05  0.0000E+00  2.0525E+05 -2.2997E+05  6.6374E+04  3.6885E+05  0.0000E+00  0.0000E+00  0.0000E+00
   2.992m  2.8537E+04  0.0000E+00  0.0000E+00  0.0000E+00  9.0000E+01  9.0000E+01  9.0000E+01  0.0000E+00 -3.6637E+01

  rolling -1.7837E+04  2.8960E+02 -4.0692E+04  9.4392E+03 -5.7675E+04  4.7889E+03  2.7548E+03  0.0000E+00  0.0000E+00
 averages -3.0133E+04  0.0000E+00  2.2483E+04 -2.1055E+05  5.8724E+04  1.7430E+05  0.0000E+00  0.0000E+00  0.0000E+00
           2.9373E+04  0.0000E+00  0.0000E+00  0.0000E+00  9.0000E+01  9.0000E+01  9.0000E+01  0.0000E+00  2.8197E-02
 ------------------------------------------------------------------------------------------------------------------------
     1300 -1.7859E+04  1.9515E+02 -4.5421E+04  1.1308E+04 -6.0418E+04  1.3184E+03  2.3708E+03  0.0000E+00  0.0000E+00
 650.000f  2.2867E+04  0.0000E+00 -1.6837E+05 -2.3893E+05  6.1260E+04  9.3029E+03  0.0000E+00  0.0000E+00  0.0000E+00
   3.246m  2.8385E+04  0.0000E+00  0.0000E+00  0.0000E+00  9.0000E+01  9.0000E+01  9.0000E+01  0.0000E+00  3.5212E+01

  rolling -1.7844E+04  2.7083E+02 -4.1751E+04  9.7171E+03 -5.8695E+04  4.5596E+03  2.6669E+03  0.0000E+00  0.0000E+00
 averages -3.1364E+04  0.0000E+00  1.9488E+04 -2.1493E+05  5.9712E+04  1.7471E+05  0.0000E+00  0.0000E+00  0.0000E+00
           2.9190E+04  0.0000E+00  0.0000E+00  0.0000E+00  9.0000E+01  9.0000E+01  9.0000E+01  0.0000E+00  2.9818E-01
 ------------------------------------------------------------------------------------------------------------------------
     1400 -1.7896E+04  2.1345E+02 -4.6444E+04  1.0501E+04 -6.4305E+04  4.9960E+03  2.3639E+03  0.0000E+00  0.0000E+00
 700.000f -7.0793E+04  0.0000E+00  1.1296E+05 -2.2698E+05  6.4983E+04  2.7496E+05  0.0000E+00  0.0000E+00  0.0000E+00
   3.499m  2.8637E+04  0.0000E+00  0.0000E+00  0.0000E+00  9.0000E+01  9.0000E+01  9.0000E+01  0.0000E+00 -1.8503E+01

  rolling -1.7852E+04  2.5425E+02 -4.2724E+04  1.0008E+04 -5.9727E+04  4.3966E+03  2.5977E+03  0.0000E+00  0.0000E+00
 averages -3.3343E+04  0.0000E+00  1.9406E+04 -2.1941E+05  6.0716E+04  1.7810E+05  0.0000E+00  0.0000E+00  0.0000E+00
           2.9021E+04  0.0000E+00  0.0000E+00  0.0000E+00  9.0000E+01  9.0000E+01  9.0000E+01  0.0000E+00  6.6738E-02
 ------------------------------------------------------------------------------------------------------------------------
     1500 -1.7908E+04  2.2130E+02 -4.6727E+04  1.0935E+04 -6.3621E+04  3.5880E+03  2.3712E+03  0.0000E+00  0.0000E+00
 750.000f -4.9097E+04  0.0000E+00  4.8497E+04 -2.3331E+05  6.4281E+04  2.1752E+05  0.0000E+00  0.0000E+00  0.0000E+00
   3.754m  2.8615E+04  0.0000E+00  0.0000E+00  0.0000E+00  9.0000E+01  9.0000E+01  9.0000E+01  0.0000E+00 -6.0981E+00

  rolling -1.7859E+04  2.4053E+02 -4.3574E+04  1.0276E+04 -6.0622E+04  4.2384E+03  2.5339E+03  0.0000E+00  0.0000E+00
 averages -3.4579E+04  0.0000E+00  1.7998E+04 -2.2345E+05  6.1578E+04  1.7987E+05  0.0000E+00  0.0000E+00  0.0000E+00
           2.8884E+04  0.0000E+00  0.0000E+00  0.0000E+00  9.0000E+01  9.0000E+01  9.0000E+01  0.0000E+00  1.3182E-01
 ------------------------------------------------------------------------------------------------------------------------
 ------------------------------------------------------------------------------------------------------------------------

     step     eng_tot    temp_tot     eng_cfg     eng_vdw     eng_cou     eng_bnd     eng_ang     eng_dih     eng_tet
 time          eng_pv    temp_rot     vir_cfg     vir_vdw     vir_cou     vir_bnd     vir_ang     vir_con     vir_tet
 cpu time      volume    temp_shl     eng_shl     vir_shl       alpha        beta       gamma     vir_pmf       press

 ------------------------------------------------------------------------------------------------------------------------
     1600 -1.7879E+04  2.1462E+02 -4.5897E+04  1.1625E+04 -6.1348E+04  1.4577E+03  2.3686E+03  0.0000E+00  0.0000E+00
 800.000f  1.3167E+04  0.0000E+00 -1.3705E+05 -2.4324E+05  6.1947E+04  4.4239E+04  0.0000E+00  0.0000E+00  0.0000E+00
   4.008m  2.8306E+04  0.0000E+00  0.0000E+00  0.0000E+00  9.0000E+01  9.0000E+01  9.0000E+01  0.0000E+00  2.9548E+01

  rolling -1.7865E+04  2.2951E+02 -4.4254E+04  1.0470E+04 -6.1328E+04  4.1136E+03  2.4897E+03  0.0000E+00  0.0000E+00
 averages -3.5514E+04  0.0000E+00  1.6702E+04 -2.2632E+05  6.2243E+04  1.8078E+05  0.0000E+00  0.0000E+00  0.0000E+00
           2.8796E+04  0.0000E+00  0.0000E+00  0.0000E+00  9.0000E+01  9.0000E+01  9.0000E+01  0.0000E+00  2.0363E-01
 ------------------------------------------------------------------------------------------------------------------------
     1700 -1.7854E+04  1.9858E+02 -4.4516E+04  1.0721E+04 -6.6298E+04  8.3829E+03  2.6778E+03  0.0000E+00  0.0000E+00
 850.000f -1.0395E+05  0.0000E+00  2.1543E+05 -2.2999E+05  6.7292E+04  3.7813E+05  0.0000E+00  0.0000E+00  0.0000E+00
   4.261m  2.8669E+04  0.0000E+00  0.0000E+00  0.0000E+00  9.0000E+01  9.0000E+01  9.0000E+01  0.0000E+00 -3.8220E+01

  rolling -1.7870E+04  2.2225E+02 -4.4785E+04  1.0629E+04 -6.1919E+04  4.0476E+03  2.4579E+03  0.0000E+00  0.0000E+00
 averages -3.6665E+04  0.0000E+00  1.7205E+04 -2.2874E+05  6.2809E+04  1.8313E+05  0.0000E+00  0.0000E+00  0.0000E+00
           2.8709E+04  0.0000E+00  0.0000E+00  0.0000E+00  9.0000E+01  9.0000E+01  9.0000E+01  0.0000E+00  2.8808E-03
 ------------------------------------------------------------------------------------------------------------------------
     1800 -1.7879E+04  2.3715E+02 -4.5061E+04  1.1057E+04 -6.0232E+04  1.5386E+03  2.5748E+03  0.0000E+00  0.0000E+00
 900.000f  1.4130E+04  0.0000E+00 -1.3322E+05 -2.3414E+05  6.1284E+04  3.9634E+04  0.0000E+00  0.0000E+00  0.0000E+00
   4.514m  2.8781E+04  0.0000E+00  0.0000E+00  0.0000E+00  9.0000E+01  9.0000E+01  9.0000E+01  0.0000E+00  2.8653E+01

  rolling -1.7874E+04  2.1838E+02 -4.5141E+04  1.0754E+04 -6.2320E+04  3.9789E+03  2.4460E+03  0.0000E+00  0.0000E+00
 averages -3.6827E+04  0.0000E+00  1.5896E+04 -2.3058E+05  6.3194E+04  1.8328E+05  0.0000E+00  0.0000E+00  0.0000E+00
           2.8650E+04  0.0000E+00  0.0000E+00  0.0000E+00  9.0000E+01  9.0000E+01  9.0000E+01  0.0000E+00  1.8920E-01
 ------------------------------------------------------------------------------------------------------------------------
     1900 -1.7908E+04  2.7359E+02 -4.5235E+04  1.0488E+04 -6.1946E+04  3.7351E+03  2.4879E+03  0.0000E+00  0.0000E+00
 950.000f -4.3728E+04  0.0000E+00  4.6643E+04 -2.2489E+05  6.3276E+04  2.0826E+05  0.0000E+00  0.0000E+00  0.0000E+00
   4.765m  2.9148E+04  0.0000E+00  0.0000E+00  0.0000E+00  9.0000E+01  9.0000E+01  9.0000E+01  0.0000E+00 -4.9059E+00

  rolling -1.7877E+04  2.1784E+02 -4.5319E+04  1.0822E+04 -6.2555E+04  3.9664E+03  2.4476E+03  0.0000E+00  0.0000E+00
 averages -3.7179E+04  0.0000E+00  1.6320E+04 -2.3149E+05  6.3425E+04  1.8439E+05  0.0000E+00  0.0000E+00  0.0000E+00
           2.8638E+04  0.0000E+00  0.0000E+00  0.0000E+00  9.0000E+01  9.0000E+01  9.0000E+01  0.0000E+00  9.7927E-02
 ------------------------------------------------------------------------------------------------------------------------
     2000 -1.7884E+04  2.8059E+02 -4.3917E+04  1.0359E+04 -6.2583E+04  5.9020E+03  2.4051E+03  0.0000E+00  0.0000E+00
   1.000p -7.1183E+04  0.0000E+00  1.3427E+05 -2.2261E+05  6.3879E+04  2.9300E+05  0.0000E+00  0.0000E+00  0.0000E+00
   5.014m  2.9439E+04  0.0000E+00  0.0000E+00  0.0000E+00  9.0000E+01  9.0000E+01  9.0000E+01  0.0000E+00 -2.1021E+01

  rolling -1.7878E+04  2.2080E+02 -4.5326E+04  1.0840E+04 -6.2600E+04  3.9809E+03  2.4532E+03  0.0000E+00  0.0000E+00
 averages -3.7104E+04  0.0000E+00  1.6626E+04 -2.3161E+05  6.3495E+04  1.8474E+05  0.0000E+00  0.0000E+00  0.0000E+00
           2.8670E+04  0.0000E+00  0.0000E+00  0.0000E+00  9.0000E+01  9.0000E+01  9.0000E+01  0.0000E+00  7.8368E-02
 ------------------------------------------------------------------------------------------------------------------------
     2100 -1.7836E+04  2.7627E+02 -4.1740E+04  1.0627E+04 -5.7032E+04  2.0723E+03  2.5927E+03  0.0000E+00  0.0000E+00
   1.050p  3.7943E+04  0.0000E+00 -1.8738E+05 -2.2607E+05  5.7855E+04 -1.9165E+04  0.0000E+00  0.0000E+00  0.0000E+00
   5.263m  2.9389E+04  0.0000E+00  0.0000E+00  0.0000E+00  9.0000E+01  9.0000E+01  9.0000E+01  0.0000E+00  3.8672E+01

  rolling -1.7878E+04  2.2720E+02 -4.5166E+04  1.0809E+04 -6.2459E+04  4.0184E+03  2.4662E+03  0.0000E+00  0.0000E+00
 averages -3.6530E+04  0.0000E+00  1.6581E+04 -2.3091E+05  6.3368E+04  1.8412E+05  0.0000E+00  0.0000E+00  0.0000E+00
           2.8751E+04  0.0000E+00  0.0000E+00  0.0000E+00  9.0000E+01  9.0000E+01  9.0000E+01  0.0000E+00  1.8030E-01
 ------------------------------------------------------------------------------------------------------------------------
     2200 -1.7836E+04  2.9060E+02 -4.0369E+04  9.2625E+03 -6.1163E+04  8.6943E+03  2.8368E+03  0.0000E+00  0.0000E+00
   1.100p -9.7244E+04  0.0000E+00  2.2497E+05 -2.0592E+05  6.2484E+04  3.6841E+05  0.0000E+00  0.0000E+00  0.0000E+00
   5.509m  2.9963E+04  0.0000E+00  0.0000E+00  0.0000E+00  9.0000E+01  9.0000E+01  9.0000E+01  0.0000E+00 -3.7052E+01

  rolling -1.7877E+04  2.3658E+02 -4.4835E+04  1.0734E+04 -6.2168E+04  4.1067E+03  2.4923E+03  0.0000E+00  0.0000E+00
 averages -3.6150E+04  0.0000E+00  1.8188E+04 -2.2947E+05  6.3110E+04  1.8455E+05  0.0000E+00  0.0000E+00  0.0000E+00
           2.8869E+04  0.0000E+00  0.0000E+00  0.0000E+00  9.0000E+01  9.0000E+01  9.0000E+01  0.0000E+00  1.1291E-02
 ------------------------------------------------------------------------------------------------------------------------
     2300 -1.7881E+04  3.6288E+02 -4.1340E+04  9.5447E+03 -5.6391E+04  2.6574E+03  2.8486E+03  0.0000E+00  0.0000E+00
   1.150p -1.9438E+03  0.0000E+00 -5.0327E+04 -2.0957E+05  5.7588E+04  1.0166E+05  0.0000E+00  0.0000E+00  0.0000E+00
   5.756m  3.0052E+04  0.0000E+00  0.0000E+00  0.0000E+00  9.0000E+01  9.0000E+01  9.0000E+01  0.0000E+00  1.4083E+01

  rolling -1.7875E+04  2.4871E+02 -4.4346E+04  1.0618E+04 -6.1680E+04  4.1886E+03  2.5271E+03  0.0000E+00  0.0000E+00
 averages -3.4885E+04  0.0000E+00  1.8131E+04 -2.2742E+05  6.2652E+04  1.8290E+05  0.0000E+00  0.0000E+00  0.0000E+00
           2.9005E+04  0.0000E+00  0.0000E+00  0.0000E+00  9.0000E+01  9.0000E+01  9.0000E+01  0.0000E+00  1.8764E-01
 ------------------------------------------------------------------------------------------------------------------------
 ------------------------------------------------------------------------------------------------------------------------

     step     eng_tot    temp_tot     eng_cfg     eng_vdw     eng_cou     eng_bnd     eng_ang     eng_dih     eng_tet
 time          eng_pv    temp_rot     vir_cfg     vir_vdw     vir_cou     vir_bnd     vir_ang     vir_con     vir_tet
 cpu time      volume    temp_shl     eng_shl     vir_shl       alpha        beta       gamma     vir_pmf       press

 ------------------------------------------------------------------------------------------------------------------------
     2400 -1.7867E+04  3.8505E+02 -4.0234E+04  9.2579E+03 -5.4929E+04  2.7335E+03  2.7037E+03  0.0000E+00  0.0000E+00
   1.200p  9.3794E+03  0.0000E+00 -7.6832E+04 -2.0500E+05  5.5910E+04  7.2254E+04  0.0000E+00  0.0000E+00  0.0000E+00
   6.000m  3.0088E+04  0.0000E+00  0.0000E+00  0.0000E+00  9.0000E+01  9.0000E+01  9.0000E+01  0.0000E+00  1.9179E+01

  rolling -1.7872E+04  2.6261E+02 -4.3696E+04  1.0425E+04 -6.1002E+04  4.3085E+03  2.5716E+03  0.0000E+00  0.0000E+00
 averages -3.3888E+04  0.0000E+00  1.9689E+04 -2.2421E+05  6.2015E+04  1.8188E+05  0.0000E+00  0.0000E+00  0.0000E+00
           2.9180E+04  0.0000E+00  0.0000E+00  0.0000E+00  9.0000E+01  9.0000E+01  9.0000E+01  0.0000E+00  1.0403E-01
 ------------------------------------------------------------------------------------------------------------------------
     2500 -1.7798E+04  3.3444E+02 -3.6495E+04  8.0361E+03 -5.7398E+04  9.7863E+03  3.0801E+03  0.0000E+00  0.0000E+00
   1.250p -1.0184E+05  0.0000E+00  2.5857E+05 -1.8683E+05  5.8445E+04  3.8695E+05  0.0000E+00  0.0000E+00  0.0000E+00
   6.245m  3.0738E+04  0.0000E+00  0.0000E+00  0.0000E+00  9.0000E+01  9.0000E+01  9.0000E+01  0.0000E+00 -4.1507E+01

  rolling -1.7867E+04  2.7861E+02 -4.2944E+04  1.0219E+04 -6.0251E+04  4.4567E+03  2.6309E+03  0.0000E+00  0.0000E+00
 averages -3.2664E+04  0.0000E+00  2.1265E+04 -2.2082E+05  6.1316E+04  1.8076E+05  0.0000E+00  0.0000E+00  0.0000E+00
           2.9358E+04  0.0000E+00  0.0000E+00  0.0000E+00  9.0000E+01  9.0000E+01  9.0000E+01  0.0000E+00  2.7941E-02
 ------------------------------------------------------------------------------------------------------------------------
     2600 -1.7802E+04  3.7433E+02 -3.6805E+04  9.0581E+03 -5.1624E+04  2.9205E+03  2.8404E+03  0.0000E+00  0.0000E+00
   1.300p  4.8236E+04  0.0000E+00 -1.8512E+05 -2.0159E+05  5.2474E+04 -3.6006E+04  0.0000E+00  0.0000E+00  0.0000E+00
   6.493m  3.0369E+04  0.0000E+00  0.0000E+00  0.0000E+00  9.0000E+01  9.0000E+01  9.0000E+01  0.0000E+00  3.8336E+01

  rolling -1.7862E+04  2.9550E+02 -4.2107E+04  9.9882E+03 -5.9369E+04  4.5911E+03  2.6826E+03  0.0000E+00  0.0000E+00
 averages -3.0825E+04  0.0000E+00  2.1416E+04 -2.1701E+05  6.0465E+04  1.7797E+05  0.0000E+00  0.0000E+00  0.0000E+00
           2.9551E+04  0.0000E+00  0.0000E+00  0.0000E+00  9.0000E+01  9.0000E+01  9.0000E+01  0.0000E+00  2.4121E-01
 ------------------------------------------------------------------------------------------------------------------------
     2700 -1.7854E+04  4.1261E+02 -3.7757E+04  8.8449E+03 -5.5515E+04  5.6863E+03  3.2267E+03  0.0000E+00  0.0000E+00
   1.350p -4.3357E+04  0.0000E+00  9.3966E+04 -1.9806E+05  5.6831E+04  2.3519E+05  0.0000E+00  0.0000E+00  0.0000E+00
   6.738m  3.0475E+04  0.0000E+00  0.0000E+00  0.0000E+00  9.0000E+01  9.0000E+01  9.0000E+01  0.0000E+00 -1.1311E+01

  rolling -1.7856E+04  3.1262E+02 -4.1238E+04  9.7437E+03 -5.8479E+04  4.7622E+03  2.7345E+03  0.0000E+00  0.0000E+00
 averages -2.9742E+04  0.0000E+00  2.3976E+04 -2.1299E+05  5.9614E+04  1.7736E+05  0.0000E+00  0.0000E+00  0.0000E+00
           2.9758E+04  0.0000E+00  0.0000E+00  0.0000E+00  9.0000E+01  9.0000E+01  9.0000E+01  0.0000E+00  1.3813E-02
 ------------------------------------------------------------------------------------------------------------------------
     2800 -1.7837E+04  3.9322E+02 -3.6808E+04  8.1522E+03 -5.4650E+04  6.5139E+03  3.1764E+03  0.0000E+00  0.0000E+00
   1.400p -5.9457E+04  0.0000E+00  1.4148E+05 -1.8709E+05  5.6233E+04  2.7234E+05  0.0000E+00  0.0000E+00  0.0000E+00
   6.981m  3.1095E+04  0.0000E+00  0.0000E+00  0.0000E+00  9.0000E+01  9.0000E+01  9.0000E+01  0.0000E+00 -1.9688E+01

  rolling -1.7850E+04  3.2870E+02 -4.0375E+04  9.4963E+03 -5.7551E+04  4.8979E+03  2.7818E+03  0.0000E+00  0.0000E+00
 averages -2.8084E+04  0.0000E+00  2.4599E+04 -2.0892E+05  5.8717E+04  1.7480E+05  0.0000E+00  0.0000E+00  0.0000E+00
           2.9972E+04  0.0000E+00  0.0000E+00  0.0000E+00  9.0000E+01  9.0000E+01  9.0000E+01  0.0000E+00  1.1351E-01
 ------------------------------------------------------------------------------------------------------------------------
     2900 -1.7784E+04  3.6026E+02 -3.5833E+04  8.7106E+03 -5.0673E+04  3.3626E+03  2.7667E+03  0.0000E+00  0.0000E+00
   1.450p  4.9168E+04  0.0000E+00 -1.8763E+05 -1.9641E+05  5.1669E+04 -4.2883E+04  0.0000E+00  0.0000E+00  0.0000E+00
   7.220m  3.0552E+04  0.0000E+00  0.0000E+00  0.0000E+00  9.0000E+01  9.0000E+01  9.0000E+01  0.0000E+00  3.8367E+01

  rolling -1.7843E+04  3.4270E+02 -3.9564E+04  9.2669E+03 -5.6682E+04  5.0262E+03  2.8251E+03  0.0000E+00  0.0000E+00
 averages -2.6582E+04  0.0000E+00  2.5144E+04 -2.0522E+05  5.7845E+04  1.7252E+05  0.0000E+00  0.0000E+00  0.0000E+00
           3.0150E+04  0.0000E+00  0.0000E+00  0.0000E+00  9.0000E+01  9.0000E+01  9.0000E+01  0.0000E+00  2.1618E-01
 ------------------------------------------------------------------------------------------------------------------------
     3000 -1.7801E+04  3.4286E+02 -3.6179E+04  8.2322E+03 -5.6171E+04  8.7995E+03  2.9603E+03  0.0000E+00  0.0000E+00
   1.500p -8.6807E+04  0.0000E+00  2.1601E+05 -1.8959E+05  5.7367E+04  3.4823E+05  0.0000E+00  0.0000E+00  0.0000E+00
   7.461m  3.0665E+04  0.0000E+00  0.0000E+00  0.0000E+00  9.0000E+01  9.0000E+01  9.0000E+01  0.0000E+00 -3.3911E+01

  rolling -1.7838E+04  3.5371E+02 -3.8854E+04  9.0472E+03 -5.5924E+04  5.1605E+03  2.8627E+03  0.0000E+00  0.0000E+00
 averages -2.5942E+04  0.0000E+00  2.7414E+04 -2.0178E+05  5.7055E+04  1.7214E+05  0.0000E+00  0.0000E+00  0.0000E+00
           3.0295E+04  0.0000E+00  0.0000E+00  0.0000E+00  9.0000E+01  9.0000E+01  9.0000E+01  0.0000E+00 -4.9961E-02
 ------------------------------------------------------------------------------------------------------------------------
     3100 -1.7856E+04  3.7686E+02 -3.8933E+04  8.7930E+03 -5.3875E+04  3.4184E+03  2.7305E+03  0.0000E+00  0.0000E+00
   1.550p -7.6195E+03  0.0000E+00 -2.3463E+04 -1.9805E+05  5.5078E+04  1.1951E+05  0.0000E+00  0.0000E+00  0.0000E+00
   7.703m  3.0455E+04  0.0000E+00  0.0000E+00  0.0000E+00  9.0000E+01  9.0000E+01  9.0000E+01  0.0000E+00  9.2653E+00

  rolling -1.7833E+04  3.6159E+02 -3.8309E+04  8.8923E+03 -5.5308E+04  5.2137E+03  2.8926E+03  0.0000E+00  0.0000E+00
 averages -2.4571E+04  0.0000E+00  2.6406E+04 -1.9938E+05  5.6445E+04  1.6934E+05  0.0000E+00  0.0000E+00  0.0000E+00
           3.0390E+04  0.0000E+00  0.0000E+00  0.0000E+00  9.0000E+01  9.0000E+01  9.0000E+01  0.0000E+00  2.3954E-01
 ------------------------------------------------------------------------------------------------------------------------
 ------------------------------------------------------------------------------------------------------------------------

     step     eng_tot    temp_tot     eng_cfg     eng_vdw     eng_cou     eng_bnd     eng_ang     eng_dih     eng_tet
 time          eng_pv    temp_rot     vir_cfg     vir_vdw     vir_cou     vir_bnd     vir_ang     vir_con     vir_tet
 cpu time      volume    temp_shl     eng_shl     vir_shl       alpha        beta       gamma     vir_pmf       press

 ------------------------------------------------------------------------------------------------------------------------
     3200 -1.7842E+04  3.4404E+02 -3.9177E+04  9.0431E+03 -5.3997E+04  2.9845E+03  2.7925E+03  0.0000E+00  0.0000E+00
   1.600p  1.0360E+04  0.0000E+00 -8.4272E+04 -2.0155E+05  5.5330E+04  6.1949E+04  0.0000E+00  0.0000E+00  0.0000E+00
   7.944m  3.0281E+04  0.0000E+00  0.0000E+00  0.0000E+00  9.0000E+01  9.0000E+01  9.0000E+01  0.0000E+00  1.9845E+01

  rolling -1.7830E+04  3.6523E+02 -3.7938E+04  8.7797E+03 -5.4890E+04  5.2657E+03  2.9071E+03  0.0000E+00  0.0000E+00
 averages -2.4295E+04  0.0000E+00  2.7374E+04 -1.9759E+05  5.6063E+04  1.6890E+05  0.0000E+00  0.0000E+00  0.0000E+00
           3.0463E+04  0.0000E+00  0.0000E+00  0.0000E+00  9.0000E+01  9.0000E+01  9.0000E+01  0.0000E+00  1.1433E-01
 ------------------------------------------------------------------------------------------------------------------------
     3300 -1.7807E+04  2.8728E+02 -3.8530E+04  8.8367E+03 -5.8876E+04  8.7434E+03  2.7656E+03  0.0000E+00  0.0000E+00
   1.650p -9.3206E+04  0.0000E+00  2.1775E+05 -1.9898E+05  6.0201E+04  3.5653E+05  0.0000E+00  0.0000E+00  0.0000E+00
   8.188m  3.0280E+04  0.0000E+00  0.0000E+00  0.0000E+00  9.0000E+01  9.0000E+01  9.0000E+01  0.0000E+00 -3.5407E+01

  rolling -1.7828E+04  3.6472E+02 -3.7768E+04  8.7314E+03 -5.4694E+04  5.2841E+03  2.9102E+03  0.0000E+00  0.0000E+00
 averages -2.4339E+04  0.0000E+00  2.7922E+04 -1.9682E+05  5.5874E+04  1.6886E+05  0.0000E+00  0.0000E+00  0.0000E+00
           3.0495E+04  0.0000E+00  0.0000E+00  0.0000E+00  9.0000E+01  9.0000E+01  9.0000E+01  0.0000E+00  3.9752E-03
 ------------------------------------------------------------------------------------------------------------------------
     3400 -1.7831E+04  3.0240E+02 -4.0795E+04  9.8781E+03 -5.5586E+04  2.4362E+03  2.4771E+03  0.0000E+00  0.0000E+00
   1.700p  2.3648E+04  0.0000E+00 -1.3678E+05 -2.1527E+05  5.6965E+04  2.1527E+04  0.0000E+00  0.0000E+00  0.0000E+00
   8.434m  2.9630E+04  0.0000E+00  0.0000E+00  0.0000E+00  9.0000E+01  9.0000E+01  9.0000E+01  0.0000E+00  2.9388E+01

  rolling -1.7827E+04  3.6100E+02 -3.7836E+04  8.7501E+03 -5.4715E+04  5.2339E+03  2.8942E+03  0.0000E+00  0.0000E+00
 averages -2.4041E+04  0.0000E+00  2.6125E+04 -1.9716E+05  5.5910E+04  1.6737E+05  0.0000E+00  0.0000E+00  0.0000E+00
           3.0468E+04  0.0000E+00  0.0000E+00  0.0000E+00  9.0000E+01  9.0000E+01  9.0000E+01  0.0000E+00  2.7645E-01
 ------------------------------------------------------------------------------------------------------------------------
     3500 -1.7869E+04  2.9904E+02 -4.2387E+04  9.5842E+03 -5.9200E+04  4.6445E+03  2.5844E+03  0.0000E+00  0.0000E+00
   1.750p -4.7154E+04  0.0000E+00  7.0228E+04 -2.1093E+05  6.0332E+04  2.2082E+05  0.0000E+00  0.0000E+00  0.0000E+00
   8.682m  2.9619E+04  0.0000E+00  0.0000E+00  0.0000E+00  9.0000E+01  9.0000E+01  9.0000E+01  0.0000E+00 -8.8265E+00

  rolling -1.7828E+04  3.5359E+02 -3.8107E+04  8.8104E+03 -5.4967E+04  5.1881E+03  2.8622E+03  0.0000E+00  0.0000E+00
 averages -2.5106E+04  0.0000E+00  2.7126E+04 -1.9817E+05  5.6184E+04  1.6911E+05  0.0000E+00  0.0000E+00  0.0000E+00
           3.0408E+04  0.0000E+00  0.0000E+00  0.0000E+00  9.0000E+01  9.0000E+01  9.0000E+01  0.0000E+00 -1.2900E-02
 ------------------------------------------------------------------------------------------------------------------------
     3600 -1.7867E+04  2.6930E+02 -4.2672E+04  9.8891E+03 -6.0397E+04  5.0642E+03  2.7709E+03  0.0000E+00  0.0000E+00
   1.800p -5.7628E+04  0.0000E+00  9.5229E+04 -2.1591E+05  6.1816E+04  2.4932E+05  0.0000E+00  0.0000E+00  0.0000E+00
   8.931m  2.9485E+04  0.0000E+00  0.0000E+00  0.0000E+00  9.0000E+01  9.0000E+01  9.0000E+01  0.0000E+00 -1.3911E+01

  rolling -1.7830E+04  3.4309E+02 -3.8555E+04  8.9398E+03 -5.5401E+04  5.0772E+03  2.8284E+03  0.0000E+00  0.0000E+00
 averages -2.5748E+04  0.0000E+00  2.5741E+04 -2.0025E+05  5.6648E+04  1.6934E+05  0.0000E+00  0.0000E+00  0.0000E+00
           3.0307E+04  0.0000E+00  0.0000E+00  0.0000E+00  9.0000E+01  9.0000E+01  9.0000E+01  0.0000E+00  9.3335E-02
 ------------------------------------------------------------------------------------------------------------------------
     3700 -1.7847E+04  2.5185E+02 -4.3144E+04  1.0829E+04 -5.8547E+04  2.0900E+03  2.4843E+03  0.0000E+00  0.0000E+00
   1.850p  1.7240E+04  0.0000E+00 -1.3405E+05 -2.3003E+05  6.0237E+04  3.5738E+04  0.0000E+00  0.0000E+00  0.0000E+00
   9.180m  2.8996E+04  0.0000E+00  0.0000E+00  0.0000E+00  9.0000E+01  9.0000E+01  9.0000E+01  0.0000E+00  2.8804E+01

  rolling -1.7833E+04  3.3032E+02 -3.9147E+04  9.1134E+03 -5.5999E+04  4.9503E+03  2.7877E+03  0.0000E+00  0.0000E+00
 averages -2.6591E+04  0.0000E+00  2.4104E+04 -2.0305E+05  5.7279E+04  1.6988E+05  0.0000E+00  0.0000E+00  0.0000E+00
           3.0169E+04  0.0000E+00  0.0000E+00  0.0000E+00  9.0000E+01  9.0000E+01  9.0000E+01  0.0000E+00  2.0578E-01
 ------------------------------------------------------------------------------------------------------------------------
     3800 -1.7849E+04  2.2835E+02 -4.3294E+04  1.0469E+04 -6.3445E+04  7.1484E+03  2.5328E+03  0.0000E+00  0.0000E+00
   1.900p -8.4058E+04  0.0000E+00  1.6500E+05 -2.2473E+05  6.5168E+04  3.2455E+05  0.0000E+00  0.0000E+00  0.0000E+00
   9.430m  2.9144E+04  0.0000E+00  0.0000E+00  0.0000E+00  9.0000E+01  9.0000E+01  9.0000E+01  0.0000E+00 -2.7725E+01

  rolling -1.7837E+04  3.1627E+02 -3.9846E+04  9.3121E+03 -5.6741E+04  4.8410E+03  2.7410E+03  0.0000E+00  0.0000E+00
 averages -2.8256E+04  0.0000E+00  2.4376E+04 -2.0629E+05  5.8050E+04  1.7262E+05  0.0000E+00  0.0000E+00  0.0000E+00
           3.0002E+04  0.0000E+00  0.0000E+00  0.0000E+00  9.0000E+01  9.0000E+01  9.0000E+01  0.0000E+00 -3.8173E-02
 ------------------------------------------------------------------------------------------------------------------------
     3900 -1.7879E+04  2.4787E+02 -4.4883E+04  1.0667E+04 -6.0412E+04  2.4536E+03  2.4089E+03  0.0000E+00  0.0000E+00
   1.950p -1.1722E+04  0.0000E+00 -5.3126E+04 -2.2739E+05  6.1834E+04  1.1243E+05  0.0000E+00  0.0000E+00  0.0000E+00
   9.679m  2.9197E+04  0.0000E+00  0.0000E+00  0.0000E+00  9.0000E+01  9.0000E+01  9.0000E+01  0.0000E+00  1.3409E+01

  rolling -1.7842E+04  3.0206E+02 -4.0614E+04  9.5262E+03 -5.7514E+04  4.6785E+03  2.6948E+03  0.0000E+00  0.0000E+00
 averages -2.9186E+04  0.0000E+00  2.2203E+04 -2.0972E+05  5.8857E+04  1.7306E+05  0.0000E+00  0.0000E+00  0.0000E+00
           2.9843E+04  0.0000E+00  0.0000E+00  0.0000E+00  9.0000E+01  9.0000E+01  9.0000E+01  0.0000E+00  1.5781E-01
 ------------------------------------------------------------------------------------------------------------------------
 ------------------------------------------------------------------------------------------------------------------------

     step     eng_tot    temp_tot     eng_cfg     eng_vdw     eng_cou     eng_bnd     eng_ang     eng_dih     eng_tet
 time          eng_pv    temp_rot     vir_cfg     vir_vdw     vir_cou     vir_bnd     vir_ang     vir_con     vir_tet
 cpu time      volume    temp_shl     eng_shl     vir_shl       alpha        beta       gamma     vir_pmf       press

 ------------------------------------------------------------------------------------------------------------------------
     4000 -1.7890E+04  2.5146E+02 -4.5611E+04  1.0705E+04 -6.1556E+04  2.8663E+03  2.3744E+03  0.0000E+00  0.0000E+00
   2.000p -2.5051E+04  0.0000E+00 -1.4652E+04 -2.2816E+05  6.2899E+04  1.5061E+05  0.0000E+00  0.0000E+00  0.0000E+00
   9.929m  2.9070E+04  0.0000E+00  0.0000E+00  0.0000E+00  9.0000E+01  9.0000E+01  9.0000E+01  0.0000E+00  6.2881E+00

  rolling -1.7847E+04  2.8828E+02 -4.1396E+04  9.7683E+03 -5.8366E+04  4.5488E+03  2.6523E+03  0.0000E+00  0.0000E+00
 averages -3.0597E+04  0.0000E+00  2.1514E+04 -2.1350E+05  5.9759E+04  1.7526E+05  0.0000E+00  0.0000E+00  0.0000E+00
           2.9684E+04  0.0000E+00  0.0000E+00  0.0000E+00  9.0000E+01  9.0000E+01  9.0000E+01  0.0000E+00  8.4571E-02
 ------------------------------------------------------------------------------------------------------------------------
     4100 -1.7870E+04  2.2111E+02 -4.4717E+04  1.0409E+04 -6.3672E+04  6.0659E+03  2.4802E+03  0.0000E+00  0.0000E+00
   2.050p -7.6904E+04  0.0000E+00  1.3791E+05 -2.2341E+05  6.5141E+04  2.9618E+05  0.0000E+00  0.0000E+00  0.0000E+00
  10.179m  2.9369E+04  0.0000E+00  0.0000E+00  0.0000E+00  9.0000E+01  9.0000E+01  9.0000E+01  0.0000E+00 -2.2575E+01

  rolling -1.7852E+04  2.7533E+02 -4.2140E+04  9.9988E+03 -5.9177E+04  4.4299E+03  2.6090E+03  0.0000E+00  0.0000E+00
 averages -3.1972E+04  0.0000E+00  2.0987E+04 -2.1705E+05  6.0583E+04  1.7746E+05  0.0000E+00  0.0000E+00  0.0000E+00
           2.9549E+04  0.0000E+00  0.0000E+00  0.0000E+00  9.0000E+01  9.0000E+01  9.0000E+01  0.0000E+00  5.1587E-03
 ------------------------------------------------------------------------------------------------------------------------
     4200 -1.7862E+04  2.2111E+02 -4.4733E+04  1.1412E+04 -6.0646E+04  1.9952E+03  2.5059E+03  0.0000E+00  0.0000E+00
   2.100p  1.1762E+04  0.0000E+00 -1.2814E+05 -2.3825E+05  6.2009E+04  4.8104E+04  0.0000E+00  0.0000E+00  0.0000E+00
  10.428m  2.8980E+04  0.0000E+00  0.0000E+00  0.0000E+00  9.0000E+01  9.0000E+01  9.0000E+01  0.0000E+00  2.7271E+01

  rolling -1.7857E+04  2.6433E+02 -4.2831E+04  1.0218E+04 -5.9926E+04  4.3069E+03  2.5708E+03  0.0000E+00  0.0000E+00
 averages -3.2739E+04  0.0000E+00  1.9157E+04 -2.2045E+05  6.1334E+04  1.7828E+05  0.0000E+00  0.0000E+00  0.0000E+00
           2.9416E+04  0.0000E+00  0.0000E+00  0.0000E+00  9.0000E+01  9.0000E+01  9.0000E+01  0.0000E+00  1.8087E-01
 ------------------------------------------------------------------------------------------------------------------------
     4300 -1.7878E+04  2.3421E+02 -4.5112E+04  1.1021E+04 -6.4373E+04  5.7897E+03  2.4503E+03  0.0000E+00  0.0000E+00
   2.150p -6.9658E+04  0.0000E+00  1.1744E+05 -2.3194E+05  6.5815E+04  2.8357E+05  0.0000E+00  0.0000E+00  0.0000E+00
  10.676m  2.9200E+04  0.0000E+00  0.0000E+00  0.0000E+00  9.0000E+01  9.0000E+01  9.0000E+01  0.0000E+00 -1.8693E+01

  rolling -1.7862E+04  2.5524E+02 -4.3430E+04  1.0389E+04 -6.0580E+04  4.2261E+03  2.5360E+03  0.0000E+00  0.0000E+00
 averages -3.4026E+04  0.0000E+00  1.9523E+04 -2.2309E+05  6.2020E+04  1.8060E+05  0.0000E+00  0.0000E+00  0.0000E+00
           2.9322E+04  0.0000E+00  0.0000E+00  0.0000E+00  9.0000E+01  9.0000E+01  9.0000E+01  0.0000E+00 -1.5855E-02
 ------------------------------------------------------------------------------------------------------------------------
     4400 -1.7892E+04  2.5295E+02 -4.5436E+04  1.0837E+04 -6.2047E+04  3.3388E+03  2.4341E+03  0.0000E+00  0.0000E+00
   2.200p -3.2139E+04  0.0000E+00  7.4131E+03 -2.2933E+05  6.3495E+04  1.7325E+05  0.0000E+00  0.0000E+00  0.0000E+00
  10.925m  2.9305E+04  0.0000E+00  0.0000E+00  0.0000E+00  9.0000E+01  9.0000E+01  9.0000E+01  0.0000E+00  2.1454E+00

  rolling -1.7866E+04  2.4817E+02 -4.3909E+04  1.0552E+04 -6.1115E+04  4.1449E+03  2.5091E+03  0.0000E+00  0.0000E+00
 averages -3.4620E+04  0.0000E+00  1.8543E+04 -2.2553E+05  6.2567E+04  1.8151E+05  0.0000E+00  0.0000E+00  0.0000E+00
           2.9253E+04  0.0000E+00  0.0000E+00  0.0000E+00  9.0000E+01  9.0000E+01  9.0000E+01  0.0000E+00  6.5183E-02
 ------------------------------------------------------------------------------------------------------------------------
     4500 -1.7880E+04  2.5369E+02 -4.4792E+04  1.0704E+04 -6.0557E+04  2.5660E+03  2.4948E+03  0.0000E+00  0.0000E+00
   2.250p -7.5819E+03  0.0000E+00 -6.4187E+04 -2.2791E+05  6.2119E+04  1.0161E+05  0.0000E+00  0.0000E+00  0.0000E+00
  11.176m  2.9141E+04  0.0000E+00  0.0000E+00  0.0000E+00  9.0000E+01  9.0000E+01  9.0000E+01  0.0000E+00  1.5590E+01

  rolling -1.7869E+04  2.4349E+02 -4.4263E+04  1.0683E+04 -6.1535E+04  4.0953E+03  2.4939E+03  0.0000E+00  0.0000E+00
 averages -3.5071E+04  0.0000E+00  1.7959E+04 -2.2748E+05  6.3000E+04  1.8244E+05  0.0000E+00  0.0000E+00  0.0000E+00
           2.9200E+04  0.0000E+00  0.0000E+00  0.0000E+00  9.0000E+01  9.0000E+01  9.0000E+01  0.0000E+00  1.0396E-01
 ------------------------------------------------------------------------------------------------------------------------
     4600 -1.7860E+04  2.4826E+02 -4.3672E+04  1.0274E+04 -6.3523E+04  6.9529E+03  2.6238E+03  0.0000E+00  0.0000E+00
   2.300p -8.2278E+04  0.0000E+00  1.6225E+05 -2.2160E+05  6.5248E+04  3.1860E+05  0.0000E+00  0.0000E+00  0.0000E+00
  11.425m  2.9328E+04  0.0000E+00  0.0000E+00  0.0000E+00  9.0000E+01  9.0000E+01  9.0000E+01  0.0000E+00 -2.6762E+01

  rolling -1.7871E+04  2.4166E+02 -4.4497E+04  1.0762E+04 -6.1827E+04  4.0797E+03  2.4886E+03  0.0000E+00  0.0000E+00
 averages -3.5573E+04  0.0000E+00  1.8422E+04 -2.2865E+05  6.3308E+04  1.8377E+05  0.0000E+00  0.0000E+00  0.0000E+00
           2.9170E+04  0.0000E+00  0.0000E+00  0.0000E+00  9.0000E+01  9.0000E+01  9.0000E+01  0.0000E+00 -8.3098E-03
 ------------------------------------------------------------------------------------------------------------------------
     4700 -1.7866E+04  2.7468E+02 -4.3633E+04  1.0633E+04 -5.9166E+04  2.3356E+03  2.5636E+03  0.0000E+00  0.0000E+00
   2.350p  8.4880E+03  0.0000E+00 -1.0500E+05 -2.2661E+05  6.0402E+04  6.1210E+04  0.0000E+00  0.0000E+00  0.0000E+00
  11.673m  2.9259E+04  0.0000E+00  0.0000E+00  0.0000E+00  9.0000E+01  9.0000E+01  9.0000E+01  0.0000E+00  2.3439E+01

  rolling -1.7873E+04  2.4227E+02 -4.4594E+04  1.0798E+04 -6.1946E+04  4.0637E+03  2.4903E+03  0.0000E+00  0.0000E+00
 averages -3.5417E+04  0.0000E+00  1.7778E+04 -2.2914E+05  6.3419E+04  1.8349E+05  0.0000E+00  0.0000E+00  0.0000E+00
           2.9171E+04  0.0000E+00  0.0000E+00  0.0000E+00  9.0000E+01  9.0000E+01  9.0000E+01  0.0000E+00  1.1824E-01
 ------------------------------------------------------------------------------------------------------------------------
 ------------------------------------------------------------------------------------------------------------------------

     step     eng_tot    temp_tot     eng_cfg     eng_vdw     eng_cou     eng_bnd     eng_ang     eng_dih     eng_tet
 time          eng_pv    temp_rot     vir_cfg     vir_vdw     vir_cou     vir_bnd     vir_ang     vir_con     vir_tet
 cpu time      volume    temp_shl     eng_shl     vir_shl       alpha        beta       gamma     vir_pmf       press

 ------------------------------------------------------------------------------------------------------------------------
     4800 -1.7881E+04  2.9606E+02 -4.3294E+04  1.0062E+04 -6.0753E+04  4.7425E+03  2.6549E+03  0.0000E+00  0.0000E+00
   2.400p -4.7690E+04  0.0000E+00  6.8555E+04 -2.1766E+05  6.2229E+04  2.2399E+05  0.0000E+00  0.0000E+00  0.0000E+00
  11.923m  2.9542E+04  0.0000E+00  0.0000E+00  0.0000E+00  9.0000E+01  9.0000E+01  9.0000E+01  0.0000E+00 -8.5815E+00

  rolling -1.7874E+04  2.4547E+02 -4.4561E+04  1.0799E+04 -6.1953E+04  4.0883E+03  2.5053E+03  0.0000E+00  0.0000E+00
 averages -3.5422E+04  0.0000E+00  1.8489E+04 -2.2905E+05  6.3394E+04  1.8414E+05  0.0000E+00  0.0000E+00  0.0000E+00
           2.9195E+04  0.0000E+00  0.0000E+00  0.0000E+00  9.0000E+01  9.0000E+01  9.0000E+01  0.0000E+00  3.0175E-02
 ------------------------------------------------------------------------------------------------------------------------
     4900 -1.7874E+04  3.1017E+02 -4.2522E+04  9.9200E+03 -6.0174E+04  5.0784E+03  2.6535E+03  0.0000E+00  0.0000E+00
   2.450p -5.0847E+04  0.0000E+00  8.2981E+04 -2.1528E+05  6.1641E+04  2.3662E+05  0.0000E+00  0.0000E+00  0.0000E+00
  12.171m  2.9722E+04  0.0000E+00  0.0000E+00  0.0000E+00  9.0000E+01  9.0000E+01  9.0000E+01  0.0000E+00 -1.0987E+01

  rolling -1.7873E+04  2.5095E+02 -4.4396E+04  1.0753E+04 -6.1795E+04  4.1227E+03  2.5230E+03  0.0000E+00  0.0000E+00
 averages -3.5006E+04  0.0000E+00  1.8762E+04 -2.2826E+05  6.3218E+04  1.8380E+05  0.0000E+00  0.0000E+00  0.0000E+00
           2.9239E+04  0.0000E+00  0.0000E+00  0.0000E+00  9.0000E+01  9.0000E+01  9.0000E+01  0.0000E+00  5.3193E-02
 ------------------------------------------------------------------------------------------------------------------------
     5000 -1.7846E+04  3.0759E+02 -4.0979E+04  1.0172E+04 -5.6465E+04  2.7095E+03  2.6047E+03  0.0000E+00  0.0000E+00
   2.500p  1.8014E+04  0.0000E+00 -1.1946E+05 -2.1879E+05  5.7861E+04  4.1476E+04  0.0000E+00  0.0000E+00  0.0000E+00
  12.418m  2.9658E+04  0.0000E+00  0.0000E+00  0.0000E+00  9.0000E+01  9.0000E+01  9.0000E+01  0.0000E+00  2.6241E+01

  rolling -1.7872E+04  2.5865E+02 -4.4114E+04  1.0673E+04 -6.1510E+04  4.1738E+03  2.5487E+03  0.0000E+00  0.0000E+00
 averages -3.4308E+04  0.0000E+00  1.8952E+04 -2.2697E+05  6.2933E+04  1.8299E+05  0.0000E+00  0.0000E+00  0.0000E+00
           2.9293E+04  0.0000E+00  0.0000E+00  0.0000E+00  9.0000E+01  9.0000E+01  9.0000E+01  0.0000E+00  1.2659E-01
 ------------------------------------------------------------------------------------------------------------------------
     5100 -1.7838E+04  3.1946E+02 -4.0149E+04  9.7866E+03 -6.0519E+04  7.7367E+03  2.8468E+03  0.0000E+00  0.0000E+00
   2.550p -7.6570E+04  0.0000E+00  1.6901E+05 -2.1304E+05  6.1762E+04  3.2028E+05  0.0000E+00  0.0000E+00  0.0000E+00
  12.664m  2.9786E+04  0.0000E+00  0.0000E+00  0.0000E+00  9.0000E+01  9.0000E+01  9.0000E+01  0.0000E+00 -2.6613E+01

  rolling -1.7870E+04  2.6763E+02 -4.3706E+04  1.0530E+04 -6.1076E+04  4.2551E+03  2.5846E+03  0.0000E+00  0.0000E+00
 averages -3.3859E+04  0.0000E+00  2.0508E+04 -2.2476E+05  6.2511E+04  1.8275E+05  0.0000E+00  0.0000E+00  0.0000E+00
           2.9375E+04  0.0000E+00  0.0000E+00  0.0000E+00  9.0000E+01  9.0000E+01  9.0000E+01  0.0000E+00 -3.7584E-02
 ------------------------------------------------------------------------------------------------------------------------
     5200 -1.7860E+04  3.5821E+02 -4.0495E+04  9.3645E+03 -5.6063E+04  3.3549E+03  2.8486E+03  0.0000E+00  0.0000E+00
   2.600p -5.0143E+03  0.0000E+00 -3.9454E+04 -2.0682E+05  5.7522E+04  1.0985E+05  0.0000E+00  0.0000E+00  0.0000E+00
  12.910m  3.0024E+04  0.0000E+00  0.0000E+00  0.0000E+00  9.0000E+01  9.0000E+01  9.0000E+01  0.0000E+00  1.2054E+01

  rolling -1.7868E+04  2.7842E+02 -4.3223E+04  1.0375E+04 -6.0555E+04  4.3255E+03  2.6317E+03  0.0000E+00  0.0000E+00
 averages -3.2740E+04  0.0000E+00  2.0619E+04 -2.2236E+05  6.1980E+04  1.8099E+05  0.0000E+00  0.0000E+00  0.0000E+00
           2.9455E+04  0.0000E+00  0.0000E+00  0.0000E+00  9.0000E+01  9.0000E+01  9.0000E+01  0.0000E+00  9.0404E-02
 ------------------------------------------------------------------------------------------------------------------------
     5300 -1.7857E+04  3.6286E+02 -3.9728E+04  9.0154E+03 -5.5377E+04  3.6905E+03  2.9430E+03  0.0000E+00  0.0000E+00
   2.650p -8.5499E+03  0.0000E+00 -2.5675E+04 -2.0081E+05  5.7038E+04  1.1810E+05  0.0000E+00  0.0000E+00  0.0000E+00
  13.155m  3.0283E+04  0.0000E+00  0.0000E+00  0.0000E+00  9.0000E+01  9.0000E+01  9.0000E+01  0.0000E+00  9.5281E+00

  rolling -1.7864E+04  2.9019E+02 -4.2676E+04  1.0225E+04 -6.0009E+04  4.4260E+03  2.6825E+03  0.0000E+00  0.0000E+00
 averages -3.1814E+04  0.0000E+00  2.1685E+04 -2.2001E+05  6.1430E+04  1.8027E+05  0.0000E+00  0.0000E+00  0.0000E+00
           2.9537E+04  0.0000E+00  0.0000E+00  0.0000E+00  9.0000E+01  9.0000E+01  9.0000E+01  0.0000E+00  6.0948E-02
 ------------------------------------------------------------------------------------------------------------------------
     5400 -1.7823E+04  3.4125E+02 -3.8203E+04  9.0906E+03 -5.8119E+04  7.7114E+03  3.1136E+03  0.0000E+00  0.0000E+00
   2.700p -7.2110E+04  0.0000E+00  1.6554E+05 -2.0264E+05  5.9412E+04  3.0877E+05  0.0000E+00  0.0000E+00  0.0000E+00
  13.399m  3.0197E+04  0.0000E+00  0.0000E+00  0.0000E+00  9.0000E+01  9.0000E+01  9.0000E+01  0.0000E+00 -2.5328E+01

  rolling -1.7861E+04  3.0193E+02 -4.2076E+04  1.0042E+04 -5.9392E+04  4.5294E+03  2.7445E+03  0.0000E+00  0.0000E+00
 averages -3.0844E+04  0.0000E+00  2.2770E+04 -2.1719E+05  6.0811E+04  1.7915E+05  0.0000E+00  0.0000E+00  0.0000E+00
           2.9634E+04  0.0000E+00  0.0000E+00  0.0000E+00  9.0000E+01  9.0000E+01  9.0000E+01  0.0000E+00  2.0268E-02
 ------------------------------------------------------------------------------------------------------------------------
     5500 -1.7823E+04  3.5093E+02 -3.8228E+04  9.3917E+03 -5.3813E+04  3.1833E+03  3.0101E+03  0.0000E+00  0.0000E+00
   2.750p  2.3610E+04  0.0000E+00 -1.1989E+05 -2.0656E+05  5.4856E+04  3.1818E+04  0.0000E+00  0.0000E+00  0.0000E+00
  13.643m  3.0262E+04  0.0000E+00  0.0000E+00  0.0000E+00  9.0000E+01  9.0000E+01  9.0000E+01  0.0000E+00  2.6380E+01

  rolling -1.7857E+04  3.1310E+02 -4.1459E+04  9.8349E+03 -5.8703E+04  4.6127E+03  2.7962E+03  0.0000E+00  0.0000E+00
 averages -2.9594E+04  0.0000E+00  2.2960E+04 -2.1401E+05  6.0103E+04  1.7687E+05  0.0000E+00  0.0000E+00  0.0000E+00
           2.9753E+04  0.0000E+00  0.0000E+00  0.0000E+00  9.0000E+01  9.0000E+01  9.0000E+01  0.0000E+00  1.4104E-01
 ------------------------------------------------------------------------------------------------------------------------
 ------------------------------------------------------------------------------------------------------------------------

     step     eng_tot    temp_tot     eng_cfg     eng_vdw     eng_cou     eng_bnd     eng_ang     eng_dih     eng_tet
 time          eng_pv    temp_rot     vir_cfg     vir_vdw     vir_cou     vir_bnd     vir_ang     vir_con     vir_tet
 cpu time      volume    temp_shl     eng_shl     vir_shl       alpha        beta       gamma     vir_pmf       press

 ------------------------------------------------------------------------------------------------------------------------
     5600 -1.7848E+04  3.7112E+02 -3.9121E+04  8.9262E+03 -5.6622E+04  5.6891E+03  2.8854E+03  0.0000E+00  0.0000E+00
   2.800p -4.6276E+04  0.0000E+00  9.0868E+04 -1.9938E+05  5.7853E+04  2.3240E+05  0.0000E+00  0.0000E+00  0.0000E+00
  13.884m  3.0484E+04  0.0000E+00  0.0000E+00  0.0000E+00  9.0000E+01  9.0000E+01  9.0000E+01  0.0000E+00 -1.1309E+01

  rolling -1.7853E+04  3.2337E+02 -4.0869E+04  9.6549E+03 -5.8081E+04  4.7184E+03  2.8393E+03  0.0000E+00  0.0000E+00
 averages -2.8940E+04  0.0000E+00  2.4687E+04 -2.1117E+05  5.9458E+04  1.7639E+05  0.0000E+00  0.0000E+00  0.0000E+00
           2.9882E+04  0.0000E+00  0.0000E+00  0.0000E+00  9.0000E+01  9.0000E+01  9.0000E+01  0.0000E+00 -3.3212E-02
 ------------------------------------------------------------------------------------------------------------------------
     5700 -1.7848E+04  3.6074E+02 -3.9058E+04  9.0665E+03 -5.6309E+04  5.2300E+03  2.9550E+03  0.0000E+00  0.0000E+00
   2.850p -4.1394E+04  0.0000E+00  7.4472E+04 -2.0136E+05  5.7764E+04  2.1807E+05  0.0000E+00  0.0000E+00  0.0000E+00
  14.125m  3.0509E+04  0.0000E+00  0.0000E+00  0.0000E+00  9.0000E+01  9.0000E+01  9.0000E+01  0.0000E+00 -8.5026E+00

  rolling -1.7849E+04  3.3233E+02 -4.0345E+04  9.5031E+03 -5.7508E+04  4.7883E+03  2.8717E+03  0.0000E+00  0.0000E+00
 averages -2.7901E+04  0.0000E+00  2.4817E+04 -2.0872E+05  5.8866E+04  1.7467E+05  0.0000E+00  0.0000E+00  0.0000E+00
           3.0004E+04  0.0000E+00  0.0000E+00  0.0000E+00  9.0000E+01  9.0000E+01  9.0000E+01  0.0000E+00  6.2420E-02
 ------------------------------------------------------------------------------------------------------------------------
     5800 -1.7826E+04  3.3658E+02 -3.8749E+04  9.2113E+03 -5.4022E+04  3.2964E+03  2.7652E+03  0.0000E+00  0.0000E+00
   2.900p  1.6624E+04  0.0000E+00 -1.0317E+05 -2.0360E+05  5.4884E+04  4.5542E+04  0.0000E+00  0.0000E+00  0.0000E+00
  14.367m  3.0411E+04  0.0000E+00  0.0000E+00  0.0000E+00  9.0000E+01  9.0000E+01  9.0000E+01  0.0000E+00  2.3055E+01

  rolling -1.7845E+04  3.3904E+02 -3.9902E+04  9.3815E+03 -5.7027E+04  4.8492E+03  2.8938E+03  0.0000E+00  0.0000E+00
 averages -2.7120E+04  0.0000E+00  2.5058E+04 -2.0675E+05  5.8365E+04  1.7344E+05  0.0000E+00  0.0000E+00  0.0000E+00
           3.0107E+04  0.0000E+00  0.0000E+00  0.0000E+00  9.0000E+01  9.0000E+01  9.0000E+01  0.0000E+00  1.1292E-01
 ------------------------------------------------------------------------------------------------------------------------
     5900 -1.7826E+04  3.2128E+02 -3.9067E+04  9.1365E+03 -5.8437E+04  7.2416E+03  2.9917E+03  0.0000E+00  0.0000E+00
   2.950p -7.0595E+04  0.0000E+00  1.5467E+05 -2.0240E+05  5.9397E+04  2.9767E+05  0.0000E+00  0.0000E+00  0.0000E+00
  14.609m  3.0456E+04  0.0000E+00  0.0000E+00  0.0000E+00  9.0000E+01  9.0000E+01  9.0000E+01  0.0000E+00 -2.3432E+01

  rolling -1.7843E+04  3.4332E+02 -3.9573E+04  9.2860E+03 -5.6677E+04  4.9096E+03  2.9085E+03  0.0000E+00  0.0000E+00
 averages -2.6915E+04  0.0000E+00  2.6234E+04 -2.0522E+05  5.7958E+04  1.7350E+05  0.0000E+00  0.0000E+00  0.0000E+00
           3.0190E+04  0.0000E+00  0.0000E+00  0.0000E+00  9.0000E+01  9.0000E+01  9.0000E+01  0.0000E+00 -4.5137E-02
 ------------------------------------------------------------------------------------------------------------------------
     6000 -1.7852E+04  3.2968E+02 -4.0487E+04  9.4395E+03 -5.6175E+04  3.5195E+03  2.7284E+03  0.0000E+00  0.0000E+00
   3.000p -9.7928E+03  0.0000E+00 -3.0429E+04 -2.0719E+05  5.6883E+04  1.1988E+05  0.0000E+00  0.0000E+00  0.0000E+00
  14.851m  3.0270E+04  0.0000E+00  0.0000E+00  0.0000E+00  9.0000E+01  9.0000E+01  9.0000E+01  0.0000E+00  9.9421E+00

  rolling -1.7841E+04  3.4465E+02 -3.9364E+04  9.2144E+03 -5.6401E+04  4.9108E+03  2.9119E+03  0.0000E+00  0.0000E+00
 averages -2.6361E+04  0.0000E+00  2.5443E+04 -2.0403E+05  5.7618E+04  1.7186E+05  0.0000E+00  0.0000E+00  0.0000E+00
           3.0262E+04  0.0000E+00  0.0000E+00  0.0000E+00  9.0000E+01  9.0000E+01  9.0000E+01  0.0000E+00  1.1535E-01
 ------------------------------------------------------------------------------------------------------------------------
     6100 -1.7856E+04  3.1493E+02 -4.1059E+04  9.4776E+03 -5.6603E+04  3.5708E+03  2.4962E+03  0.0000E+00  0.0000E+00
   3.050p -1.4417E+04  0.0000E+00 -2.1030E+04 -2.0854E+05  5.7422E+04  1.3009E+05  0.0000E+00  0.0000E+00  0.0000E+00
  15.097m  2.9962E+04  0.0000E+00  0.0000E+00  0.0000E+00  9.0000E+01  9.0000E+01  9.0000E+01  0.0000E+00  8.1295E+00

  rolling -1.7840E+04  3.4371E+02 -3.9310E+04  9.2075E+03 -5.6338E+04  4.9162E+03  2.9046E+03  0.0000E+00  0.0000E+00
 averages -2.6478E+04  0.0000E+00  2.5784E+04 -2.0388E+05  5.7488E+04  1.7218E+05  0.0000E+00  0.0000E+00  0.0000E+00
           3.0282E+04  0.0000E+00  0.0000E+00  0.0000E+00  9.0000E+01  9.0000E+01  9.0000E+01  0.0000E+00  3.9603E-02
 ------------------------------------------------------------------------------------------------------------------------
     6200 -1.7841E+04  2.8575E+02 -4.1002E+04  9.5599E+03 -5.9699E+04  6.5284E+03  2.6083E+03  0.0000E+00  0.0000E+00
   3.100p -6.7553E+04  0.0000E+00  1.3309E+05 -2.1057E+05  6.0625E+04  2.8304E+05  0.0000E+00  0.0000E+00  0.0000E+00
  15.344m  2.9795E+04  0.0000E+00  0.0000E+00  0.0000E+00  9.0000E+01  9.0000E+01  9.0000E+01  0.0000E+00 -2.0482E+01

  rolling -1.7839E+04  3.3994E+02 -3.9384E+04  9.2259E+03 -5.6383E+04  4.8934E+03  2.8796E+03  0.0000E+00  0.0000E+00
 averages -2.6758E+04  0.0000E+00  2.5695E+04 -2.0419E+05  5.7486E+04  1.7240E+05  0.0000E+00  0.0000E+00  0.0000E+00
           3.0272E+04  0.0000E+00  0.0000E+00  0.0000E+00  9.0000E+01  9.0000E+01  9.0000E+01  0.0000E+00  2.2384E-03
 ------------------------------------------------------------------------------------------------------------------------
     6300 -1.7845E+04  2.8240E+02 -4.1915E+04  1.0163E+04 -5.7392E+04  2.8359E+03  2.4788E+03  0.0000E+00  0.0000E+00
   3.150p  6.6572E+03  0.0000E+00 -9.2902E+04 -2.1922E+05  5.8348E+04  6.7967E+04  0.0000E+00  0.0000E+00  0.0000E+00
  15.589m  2.9563E+04  0.0000E+00  0.0000E+00  0.0000E+00  9.0000E+01  9.0000E+01  9.0000E+01  0.0000E+00  2.1071E+01

  rolling -1.7840E+04  3.3374E+02 -3.9583E+04  9.2582E+03 -5.6520E+04  4.8311E+03  2.8481E+03  0.0000E+00  0.0000E+00
 averages -2.6955E+04  0.0000E+00  2.4530E+04 -2.0478E+05  5.7571E+04  1.7174E+05  0.0000E+00  0.0000E+00  0.0000E+00
           3.0239E+04  0.0000E+00  0.0000E+00  0.0000E+00  9.0000E+01  9.0000E+01  9.0000E+01  0.0000E+00  1.2683E-01
 ------------------------------------------------------------------------------------------------------------------------
 ------------------------------------------------------------------------------------------------------------------------

     step     eng_tot    temp_tot     eng_cfg     eng_vdw     eng_cou     eng_bnd     eng_ang     eng_dih     eng_tet
 time          eng_pv    temp_rot     vir_cfg     vir_vdw     vir_cou     vir_bnd     vir_ang     vir_con     vir_tet
 cpu time      volume    temp_shl     eng_shl     vir_shl       alpha        beta       gamma     vir_pmf       press

 ------------------------------------------------------------------------------------------------------------------------
     6400 -1.7860E+04  2.7403E+02 -4.2615E+04  9.8913E+03 -6.0478E+04  5.2305E+03  2.7418E+03  0.0000E+00  0.0000E+00
   3.200p -5.2882E+04  0.0000E+00  8.2050E+04 -2.1520E+05  6.1475E+04  2.3577E+05  0.0000E+00  0.0000E+00  0.0000E+00
  15.837m  2.9615E+04  0.0000E+00  0.0000E+00  0.0000E+00  9.0000E+01  9.0000E+01  9.0000E+01  0.0000E+00 -1.1354E+01

  rolling -1.7842E+04  3.2623E+02 -3.9913E+04  9.3511E+03 -5.6854E+04  4.7818E+03  2.8081E+03  0.0000E+00  0.0000E+00
 averages -2.7871E+04  0.0000E+00  2.4883E+04 -2.0628E+05  5.7868E+04  1.7329E+05  0.0000E+00  0.0000E+00  0.0000E+00
           3.0174E+04  0.0000E+00  0.0000E+00  0.0000E+00  9.0000E+01  9.0000E+01  9.0000E+01  0.0000E+00 -4.2467E-02
 ------------------------------------------------------------------------------------------------------------------------
     6500 -1.7868E+04  2.7118E+02 -4.3372E+04  1.0465E+04 -6.0853E+04  4.2820E+03  2.7339E+03  0.0000E+00  0.0000E+00
   3.250p -3.9297E+04  0.0000E+00  3.8488E+04 -2.2379E+05  6.1546E+04  2.0073E+05  0.0000E+00  0.0000E+00  0.0000E+00
  16.084m  2.9365E+04  0.0000E+00  0.0000E+00  0.0000E+00  9.0000E+01  9.0000E+01  9.0000E+01  0.0000E+00 -3.3862E+00

  rolling -1.7844E+04  3.1789E+02 -4.0351E+04  9.4867E+03 -5.7303E+04  4.6960E+03  2.7694E+03  0.0000E+00  0.0000E+00
 averages -2.8425E+04  0.0000E+00  2.3673E+04 -2.0837E+05  5.8267E+04  1.7377E+05  0.0000E+00  0.0000E+00  0.0000E+00
           3.0086E+04  0.0000E+00  0.0000E+00  0.0000E+00  9.0000E+01  9.0000E+01  9.0000E+01  0.0000E+00  6.3945E-02
 ------------------------------------------------------------------------------------------------------------------------
     6600 -1.7861E+04  2.6169E+02 -4.3673E+04  1.0675E+04 -5.9755E+04  2.9321E+03  2.4753E+03  0.0000E+00  0.0000E+00
   3.300p -5.0403E+03  0.0000E+00 -6.6959E+04 -2.2695E+05  6.0888E+04  9.9108E+04  0.0000E+00  0.0000E+00  0.0000E+00
  16.333m  2.9183E+04  0.0000E+00  0.0000E+00  0.0000E+00  9.0000E+01  9.0000E+01  9.0000E+01  0.0000E+00  1.6199E+01

  rolling -1.7847E+04  3.0861E+02 -4.0846E+04  9.6244E+03 -5.7804E+04  4.6083E+03  2.7259E+03  0.0000E+00  0.0000E+00
 averages -2.9205E+04  0.0000E+00  2.2792E+04 -2.1056E+05  5.8747E+04  1.7460E+05  0.0000E+00  0.0000E+00  0.0000E+00
           2.9975E+04  0.0000E+00  0.0000E+00  0.0000E+00  9.0000E+01  9.0000E+01  9.0000E+01  0.0000E+00  9.1747E-02
 ------------------------------------------------------------------------------------------------------------------------
     6700 -1.7857E+04  2.4173E+02 -4.3431E+04  1.0254E+04 -6.2393E+04  6.1400E+03  2.5680E+03  0.0000E+00  0.0000E+00
   3.350p -7.0091E+04  0.0000E+00  1.2519E+05 -2.2097E+05  6.4137E+04  2.8202E+05  0.0000E+00  0.0000E+00  0.0000E+00
  16.583m  2.9280E+04  0.0000E+00  0.0000E+00  0.0000E+00  9.0000E+01  9.0000E+01  9.0000E+01  0.0000E+00 -1.9983E+01

  rolling -1.7850E+04  2.9864E+02 -4.1357E+04  9.7765E+03 -5.8355E+04  4.5343E+03  2.6877E+03  0.0000E+00  0.0000E+00
 averages -3.0319E+04  0.0000E+00  2.2737E+04 -2.1300E+05  5.9304E+04  1.7643E+05  0.0000E+00  0.0000E+00  0.0000E+00
           2.9846E+04  0.0000E+00  0.0000E+00  0.0000E+00  9.0000E+01  9.0000E+01  9.0000E+01  0.0000E+00 -3.4018E-02
 ------------------------------------------------------------------------------------------------------------------------
     6800 -1.7871E+04  2.4963E+02 -4.4119E+04  1.0751E+04 -6.0239E+04  2.8094E+03  2.5586E+03  0.0000E+00  0.0000E+00
   3.400p -1.0833E+04  0.0000E+00 -5.3176E+04 -2.2896E+05  6.1542E+04  1.1424E+05  0.0000E+00  0.0000E+00  0.0000E+00
  16.833m  2.8954E+04  0.0000E+00  0.0000E+00  0.0000E+00  9.0000E+01  9.0000E+01  9.0000E+01  0.0000E+00  1.3556E+01

  rolling -1.7853E+04  2.8887E+02 -4.1868E+04  9.9217E+03 -5.8878E+04  4.4339E+03  2.6549E+03  0.0000E+00  0.0000E+00
 averages -3.0938E+04  0.0000E+00  2.1234E+04 -2.1538E+05  5.9861E+04  1.7675E+05  0.0000E+00  0.0000E+00  0.0000E+00
           2.9707E+04  0.0000E+00  0.0000E+00  0.0000E+00  9.0000E+01  9.0000E+01  9.0000E+01  0.0000E+00  1.0564E-01
 ------------------------------------------------------------------------------------------------------------------------
     6900 -1.7878E+04  2.5977E+02 -4.4676E+04  1.0794E+04 -6.1974E+04  3.9271E+03  2.5769E+03  0.0000E+00  0.0000E+00
   3.450p -3.5428E+04  0.0000E+00  2.0839E+04 -2.2937E+05  6.3358E+04  1.8685E+05  0.0000E+00  0.0000E+00  0.0000E+00
  17.084m  2.8921E+04  0.0000E+00  0.0000E+00  0.0000E+00  9.0000E+01  9.0000E+01  9.0000E+01  0.0000E+00 -2.6568E-01

  rolling -1.7856E+04  2.8017E+02 -4.2365E+04  1.0058E+04 -5.9408E+04  4.3597E+03  2.6249E+03  0.0000E+00  0.0000E+00
 averages -3.1918E+04  0.0000E+00  2.1054E+04 -2.1764E+05  6.0442E+04  1.7826E+05  0.0000E+00  0.0000E+00  0.0000E+00
           2.9565E+04  0.0000E+00  0.0000E+00  0.0000E+00  9.0000E+01  9.0000E+01  9.0000E+01  0.0000E+00  1.3872E-02
 ------------------------------------------------------------------------------------------------------------------------
     7000 -1.7871E+04  2.5106E+02 -4.4304E+04  1.0773E+04 -6.2768E+04  5.1754E+03  2.5160E+03  0.0000E+00  0.0000E+00
   3.500p -5.5650E+04  0.0000E+00  8.0991E+04 -2.2914E+05  6.4111E+04  2.4602E+05  0.0000E+00  0.0000E+00  0.0000E+00
  17.336m  2.9005E+04  0.0000E+00  0.0000E+00  0.0000E+00  9.0000E+01  9.0000E+01  9.0000E+01  0.0000E+00 -1.1717E+01

  rolling -1.7859E+04  2.7309E+02 -4.2833E+04  1.0190E+04 -5.9911E+04  4.2911E+03  2.5969E+03  0.0000E+00  0.0000E+00
 averages -3.2672E+04  0.0000E+00  2.0589E+04 -2.1985E+05  6.0997E+04  1.7944E+05  0.0000E+00  0.0000E+00  0.0000E+00
           2.9429E+04  0.0000E+00  0.0000E+00  0.0000E+00  9.0000E+01  9.0000E+01  9.0000E+01  0.0000E+00  4.6900E-03
 ------------------------------------------------------------------------------------------------------------------------
     7100 -1.7866E+04  2.5011E+02 -4.4048E+04  1.0685E+04 -5.9933E+04  2.5895E+03  2.6098E+03  0.0000E+00  0.0000E+00
   3.550p -1.9974E+03  0.0000E+00 -7.9379E+04 -2.2724E+05  6.1249E+04  8.6608E+04  0.0000E+00  0.0000E+00  0.0000E+00
  17.587m  2.9172E+04  0.0000E+00  0.0000E+00  0.0000E+00  9.0000E+01  9.0000E+01  9.0000E+01  0.0000E+00  1.8368E+01

  rolling -1.7862E+04  2.6713E+02 -4.3224E+04  1.0304E+04 -6.0329E+04  4.2265E+03  2.5746E+03  0.0000E+00  0.0000E+00
 averages -3.3132E+04  0.0000E+00  1.9680E+04 -2.2170E+05  6.1477E+04  1.7990E+05  0.0000E+00  0.0000E+00  0.0000E+00
           2.9331E+04  0.0000E+00  0.0000E+00  0.0000E+00  9.0000E+01  9.0000E+01  9.0000E+01  0.0000E+00  8.5558E-02
 ------------------------------------------------------------------------------------------------------------------------
 ------------------------------------------------------------------------------------------------------------------------

     step     eng_tot    temp_tot     eng_cfg     eng_vdw     eng_cou     eng_bnd     eng_ang     eng_dih     eng_tet
 time          eng_pv    temp_rot     vir_cfg     vir_vdw     vir_cou     vir_bnd     vir_ang     vir_con     vir_tet
 cpu time      volume    temp_shl     eng_shl     vir_shl       alpha        beta       gamma     vir_pmf       press

 ------------------------------------------------------------------------------------------------------------------------
     7200 -1.7870E+04  2.5880E+02 -4.4013E+04  1.0311E+04 -6.2640E+04  5.6745E+03  2.6416E+03  0.0000E+00  0.0000E+00
   3.600p -6.4011E+04  0.0000E+00  1.0839E+05 -2.2155E+05  6.4132E+04  2.6581E+05  0.0000E+00  0.0000E+00  0.0000E+00
  17.838m  2.9358E+04  0.0000E+00  0.0000E+00  0.0000E+00  9.0000E+01  9.0000E+01  9.0000E+01  0.0000E+00 -1.6567E+01

  rolling -1.7865E+04  2.6275E+02 -4.3535E+04  1.0412E+04 -6.0705E+04  4.1948E+03  2.5630E+03  0.0000E+00  0.0000E+00
 averages -3.3802E+04  0.0000E+00  1.9940E+04 -2.2333E+05  6.1907E+04  1.8136E+05  0.0000E+00  0.0000E+00  0.0000E+00
           2.9267E+04  0.0000E+00  0.0000E+00  0.0000E+00  9.0000E+01  9.0000E+01  9.0000E+01  0.0000E+00 -2.3555E-02
 ------------------------------------------------------------------------------------------------------------------------
     7300 -1.7878E+04  2.7688E+02 -4.4197E+04  1.0622E+04 -6.0829E+04  3.4259E+03  2.5842E+03  0.0000E+00  0.0000E+00
   3.650p -2.3503E+04  0.0000E+00 -1.0300E+04 -2.2604E+05  6.1878E+04  1.5386E+05  0.0000E+00  0.0000E+00  0.0000E+00
  18.086m  2.9321E+04  0.0000E+00  0.0000E+00  0.0000E+00  9.0000E+01  9.0000E+01  9.0000E+01  0.0000E+00  5.7779E+00

  rolling -1.7867E+04  2.6037E+02 -4.3767E+04  1.0496E+04 -6.0978E+04  4.1598E+03  2.5550E+03  0.0000E+00  0.0000E+00
 averages -3.3966E+04  0.0000E+00  1.9288E+04 -2.2456E+05  6.2206E+04  1.8164E+05  0.0000E+00  0.0000E+00  0.0000E+00
           2.9226E+04  0.0000E+00  0.0000E+00  0.0000E+00  9.0000E+01  9.0000E+01  9.0000E+01  0.0000E+00  6.3463E-02
 ------------------------------------------------------------------------------------------------------------------------
     7400 -1.7875E+04  2.7856E+02 -4.3572E+04  1.0276E+04 -5.9701E+04  3.3809E+03  2.4716E+03  0.0000E+00  0.0000E+00
   3.700p -1.9486E+04  0.0000E+00 -2.0165E+04 -2.2015E+05  6.1003E+04  1.3898E+05  0.0000E+00  0.0000E+00  0.0000E+00
  18.335m  2.9592E+04  0.0000E+00  0.0000E+00  0.0000E+00  9.0000E+01  9.0000E+01  9.0000E+01  0.0000E+00  7.5692E+00

  rolling -1.7868E+04  2.5941E+02 -4.3892E+04  1.0544E+04 -6.1135E+04  4.1486E+03  2.5511E+03  0.0000E+00  0.0000E+00
 averages -3.4156E+04  0.0000E+00  1.9307E+04 -2.2521E+05  6.2391E+04  1.8212E+05  0.0000E+00  0.0000E+00  0.0000E+00
           2.9213E+04  0.0000E+00  0.0000E+00  0.0000E+00  9.0000E+01  9.0000E+01  9.0000E+01  0.0000E+00  4.5535E-02
 ------------------------------------------------------------------------------------------------------------------------
     7500 -1.7861E+04  2.7738E+02 -4.2707E+04  1.0494E+04 -6.2060E+04  6.2125E+03  2.6465E+03  0.0000E+00  0.0000E+00
   3.750p -6.3637E+04  0.0000E+00  1.1466E+05 -2.2353E+05  6.3405E+04  2.7478E+05  0.0000E+00  0.0000E+00  0.0000E+00
  18.583m  2.9483E+04  0.0000E+00  0.0000E+00  0.0000E+00  9.0000E+01  9.0000E+01  9.0000E+01  0.0000E+00 -1.7401E+01

  rolling -1.7869E+04  2.6018E+02 -4.3916E+04  1.0568E+04 -6.1197E+04  4.1574E+03  2.5549E+03  0.0000E+00  0.0000E+00
 averages -3.4232E+04  0.0000E+00  1.9603E+04 -2.2552E+05  6.2504E+04  1.8262E+05  0.0000E+00  0.0000E+00  0.0000E+00
           2.9213E+04  0.0000E+00  0.0000E+00  0.0000E+00  9.0000E+01  9.0000E+01  9.0000E+01  0.0000E+00  7.3418E-04
 ------------------------------------------------------------------------------------------------------------------------
     7600 -1.7859E+04  2.9614E+02 -4.2502E+04  1.0995E+04 -5.9112E+04  2.8489E+03  2.7662E+03  0.0000E+00  0.0000E+00
   3.800p  3.9736E+03  0.0000E+00 -8.4045E+04 -2.3074E+05  6.0373E+04  8.6320E+04  0.0000E+00  0.0000E+00  0.0000E+00
  18.831m  2.9296E+04  0.0000E+00  0.0000E+00  0.0000E+00  9.0000E+01  9.0000E+01  9.0000E+01  0.0000E+00  1.9802E+01

  rolling -1.7869E+04  2.6266E+02 -4.3843E+04  1.0546E+04 -6.1122E+04  4.1653E+03  2.5672E+03  0.0000E+00  0.0000E+00
 averages -3.3927E+04  0.0000E+00  1.9371E+04 -2.2512E+05  6.2481E+04  1.8201E+05  0.0000E+00  0.0000E+00  0.0000E+00
           2.9238E+04  0.0000E+00  0.0000E+00  0.0000E+00  9.0000E+01  9.0000E+01  9.0000E+01  0.0000E+00  7.8876E-02
 ------------------------------------------------------------------------------------------------------------------------
     7700 -1.7864E+04  3.0031E+02 -4.1802E+04  9.8470E+03 -5.9656E+04  5.2319E+03  2.7749E+03  0.0000E+00  0.0000E+00
   3.850p -4.8074E+04  0.0000E+00  7.4977E+04 -2.1383E+05  6.1165E+04  2.2764E+05  0.0000E+00  0.0000E+00  0.0000E+00
  19.078m  2.9711E+04  0.0000E+00  0.0000E+00  0.0000E+00  9.0000E+01  9.0000E+01  9.0000E+01  0.0000E+00 -9.6550E+00

  rolling -1.7869E+04  2.6693E+02 -4.3684E+04  1.0494E+04 -6.0972E+04  4.2020E+03  2.5918E+03  0.0000E+00  0.0000E+00
 averages -3.3788E+04  0.0000E+00  2.0230E+04 -2.2426E+05  6.2325E+04  1.8217E+05  0.0000E+00  0.0000E+00  0.0000E+00
           2.9282E+04  0.0000E+00  0.0000E+00  0.0000E+00  9.0000E+01  9.0000E+01  9.0000E+01  0.0000E+00 -2.0609E-02
 ------------------------------------------------------------------------------------------------------------------------
     7800 -1.7862E+04  3.1929E+02 -4.1589E+04  9.5177E+03 -5.8578E+04  4.7748E+03  2.6961E+03  0.0000E+00  0.0000E+00
   3.900p -3.8026E+04  0.0000E+00  4.9021E+04 -2.0931E+05  5.9852E+04  1.9848E+05  0.0000E+00  0.0000E+00  0.0000E+00
  19.326m  2.9802E+04  0.0000E+00  0.0000E+00  0.0000E+00  9.0000E+01  9.0000E+01  9.0000E+01  0.0000E+00 -4.6075E+00

  rolling -1.7868E+04  2.7300E+02 -4.3456E+04  1.0429E+04 -6.0740E+04  4.2421E+03  2.6120E+03  0.0000E+00  0.0000E+00
 averages -3.3234E+04  0.0000E+00  2.0389E+04 -2.2319E+05  6.2071E+04  1.8151E+05  0.0000E+00  0.0000E+00  0.0000E+00
           2.9339E+04  0.0000E+00  0.0000E+00  0.0000E+00  9.0000E+01  9.0000E+01  9.0000E+01  0.0000E+00  3.1898E-02
 ------------------------------------------------------------------------------------------------------------------------
     7900 -1.7848E+04  3.2684E+02 -4.0948E+04  1.0073E+04 -5.7102E+04  3.4401E+03  2.6404E+03  0.0000E+00  0.0000E+00
   3.950p  1.5152E+03  0.0000E+00 -6.6266E+04 -2.1755E+05  5.7797E+04  9.3484E+04  0.0000E+00  0.0000E+00  0.0000E+00
  19.572m  2.9540E+04  0.0000E+00  0.0000E+00  0.0000E+00  9.0000E+01  9.0000E+01  9.0000E+01  0.0000E+00  1.6776E+01

  rolling -1.7867E+04  2.8027E+02 -4.3158E+04  1.0342E+04 -6.0424E+04  4.2939E+03  2.6300E+03  0.0000E+00  0.0000E+00
 averages -3.2590E+04  0.0000E+00  2.0710E+04 -2.2179E+05  6.1723E+04  1.8077E+05  0.0000E+00  0.0000E+00  0.0000E+00
           2.9403E+04  0.0000E+00  0.0000E+00  0.0000E+00  9.0000E+01  9.0000E+01  9.0000E+01  0.0000E+00  7.5916E-02
 ------------------------------------------------------------------------------------------------------------------------
 ------------------------------------------------------------------------------------------------------------------------

     step     eng_tot    temp_tot     eng_cfg     eng_vdw     eng_cou     eng_bnd     eng_ang     eng_dih     eng_tet
 time          eng_pv    temp_rot     vir_cfg     vir_vdw     vir_cou     vir_bnd     vir_ang     vir_con     vir_tet
 cpu time      volume    temp_shl     eng_shl     vir_shl       alpha        beta       gamma     vir_pmf       press

 ------------------------------------------------------------------------------------------------------------------------
     8000 -1.7840E+04  3.2238E+02 -4.0063E+04  9.6031E+03 -5.9186E+04  6.6761E+03  2.8437E+03  0.0000E+00  0.0000E+00
   4.000p -6.2079E+04  0.0000E+00  1.2634E+05 -2.0977E+05  6.0299E+04  2.7581E+05  0.0000E+00  0.0000E+00  0.0000E+00
  19.818m  2.9881E+04  0.0000E+00  0.0000E+00  0.0000E+00  9.0000E+01  9.0000E+01  9.0000E+01  0.0000E+00 -1.8688E+01

  rolling -1.7865E+04  2.8805E+02 -4.2793E+04  1.0221E+04 -6.0030E+04  4.3625E+03  2.6529E+03  0.0000E+00  0.0000E+00
 averages -3.2123E+04  0.0000E+00  2.1861E+04 -2.1982E+05  6.1291E+04  1.8039E+05  0.0000E+00  0.0000E+00  0.0000E+00
           2.9494E+04  0.0000E+00  0.0000E+00  0.0000E+00  9.0000E+01  9.0000E+01  9.0000E+01  0.0000E+00 -3.0480E-02
 ------------------------------------------------------------------------------------------------------------------------
[...]
           2.9739E+04  0.0000E+00  0.0000E+00  0.0000E+00  9.0000E+01  9.0000E+01  9.0000E+01  0.0000E+00  7.9616E-03
 ------------------------------------------------------------------------------------------------------------------------
    48500 -1.7863E+04  2.9773E+02 -4.2375E+04  9.6575E+03 -5.9377E+04  4.3089E+03  3.0359E+03  0.0000E+00  0.0000E+00
  24.250p -3.3101E+04  0.0000E+00  2.7858E+04 -2.1137E+05  6.0555E+04  1.7867E+05  0.0000E+00  0.0000E+00  0.0000E+00
   1.987h  2.9817E+04  0.0000E+00  0.0000E+00  0.0000E+00  9.0000E+01  9.0000E+01  9.0000E+01  0.0000E+00 -1.0234E+00

  rolling -1.7859E+04  2.9731E+02 -4.2077E+04  1.0069E+04 -5.9303E+04  4.4512E+03  2.7055E+03  0.0000E+00  0.0000E+00
 averages -3.0960E+04  0.0000E+00  2.2252E+04 -2.1681E+05  6.0325E+04  1.7873E+05  0.0000E+00  0.0000E+00  0.0000E+00
           2.9737E+04  0.0000E+00  0.0000E+00  0.0000E+00  9.0000E+01  9.0000E+01  9.0000E+01  0.0000E+00 -1.4468E-03
 ------------------------------------------------------------------------------------------------------------------------
    48600 -1.7864E+04  2.9971E+02 -4.2449E+04  9.7527E+03 -5.9228E+04  4.1983E+03  2.8281E+03  0.0000E+00  0.0000E+00
  24.300p -3.1786E+04  0.0000E+00  2.4063E+04 -2.1314E+05  6.0283E+04  1.7692E+05  0.0000E+00  0.0000E+00  0.0000E+00
   1.991h  2.9697E+04  0.0000E+00  0.0000E+00  0.0000E+00  9.0000E+01  9.0000E+01  9.0000E+01  0.0000E+00 -3.0224E-01

  rolling -1.7859E+04  2.9669E+02 -4.2112E+04  1.0076E+04 -5.9336E+04  4.4440E+03  2.7034E+03  0.0000E+00  0.0000E+00
 averages -3.0992E+04  0.0000E+00  2.2122E+04 -2.1702E+05  6.0381E+04  1.7876E+05  0.0000E+00  0.0000E+00  0.0000E+00
           2.9722E+04  0.0000E+00  0.0000E+00  0.0000E+00  9.0000E+01  9.0000E+01  9.0000E+01  0.0000E+00  1.3913E-02
 ------------------------------------------------------------------------------------------------------------------------
    48700 -1.7863E+04  3.0193E+02 -4.2519E+04  1.0086E+04 -5.9707E+04  4.3797E+03  2.7221E+03  0.0000E+00  0.0000E+00
  24.350p -3.0796E+04  0.0000E+00  2.1295E+04 -2.1790E+05  6.0280E+04  1.7892E+05  0.0000E+00  0.0000E+00  0.0000E+00
   1.995h  2.9566E+04  0.0000E+00  0.0000E+00  0.0000E+00  9.0000E+01  9.0000E+01  9.0000E+01  0.0000E+00  2.3857E-01

  rolling -1.7859E+04  2.9640E+02 -4.2154E+04  1.0078E+04 -5.9370E+04  4.4389E+03  2.6992E+03  0.0000E+00  0.0000E+00
 averages -3.1033E+04  0.0000E+00  2.2068E+04 -2.1715E+05  6.0403E+04  1.7881E+05  0.0000E+00  0.0000E+00  0.0000E+00
           2.9708E+04  0.0000E+00  0.0000E+00  0.0000E+00  9.0000E+01  9.0000E+01  9.0000E+01  0.0000E+00  1.9849E-02
 ------------------------------------------------------------------------------------------------------------------------
 ------------------------------------------------------------------------------------------------------------------------

     step     eng_tot    temp_tot     eng_cfg     eng_vdw     eng_cou     eng_bnd     eng_ang     eng_dih     eng_tet
 time          eng_pv    temp_rot     vir_cfg     vir_vdw     vir_cou     vir_bnd     vir_ang     vir_con     vir_tet
 cpu time      volume    temp_shl     eng_shl     vir_shl       alpha        beta       gamma     vir_pmf       press

 ------------------------------------------------------------------------------------------------------------------------
    48800 -1.7862E+04  2.9439E+02 -4.2218E+04  1.0119E+04 -5.9272E+04  4.3295E+03  2.6055E+03  0.0000E+00  0.0000E+00
  24.400p -3.0870E+04  0.0000E+00  2.1015E+04 -2.1819E+05  6.0340E+04  1.7886E+05  0.0000E+00  0.0000E+00  0.0000E+00
   1.999h  2.9582E+04  0.0000E+00  0.0000E+00  0.0000E+00  9.0000E+01  9.0000E+01  9.0000E+01  0.0000E+00  1.8609E-01

  rolling -1.7859E+04  2.9596E+02 -4.2182E+04  1.0070E+04 -5.9382E+04  4.4352E+03  2.6948E+03  0.0000E+00  0.0000E+00
 averages -3.1120E+04  0.0000E+00  2.2162E+04 -2.1711E+05  6.0418E+04  1.7885E+05  0.0000E+00  0.0000E+00  0.0000E+00
           2.9703E+04  0.0000E+00  0.0000E+00  0.0000E+00  9.0000E+01  9.0000E+01  9.0000E+01  0.0000E+00 -3.4259E-03
 ------------------------------------------------------------------------------------------------------------------------
    48900 -1.7860E+04  2.9357E+02 -4.2154E+04  1.0091E+04 -5.9321E+04  4.4441E+03  2.6314E+03  0.0000E+00  0.0000E+00
  24.450p -3.1485E+04  0.0000E+00  2.2895E+04 -2.1743E+05  6.0489E+04  1.7983E+05  0.0000E+00  0.0000E+00  0.0000E+00
   2.003h  2.9670E+04  0.0000E+00  0.0000E+00  0.0000E+00  9.0000E+01  9.0000E+01  9.0000E+01  0.0000E+00 -1.7216E-01

  rolling -1.7859E+04  2.9548E+02 -4.2200E+04  1.0066E+04 -5.9394E+04  4.4308E+03  2.6975E+03  0.0000E+00  0.0000E+00
 averages -3.1145E+04  0.0000E+00  2.2095E+04 -2.1716E+05  6.0428E+04  1.7883E+05  0.0000E+00  0.0000E+00  0.0000E+00
           2.9683E+04  0.0000E+00  0.0000E+00  0.0000E+00  9.0000E+01  9.0000E+01  9.0000E+01  0.0000E+00  2.3655E-03
 ------------------------------------------------------------------------------------------------------------------------
    49000 -1.7860E+04  2.9666E+02 -4.2223E+04  1.0416E+04 -5.9799E+04  4.4008E+03  2.7582E+03  0.0000E+00  0.0000E+00
  24.500p -2.9191E+04  0.0000E+00  1.6384E+04 -2.2234E+05  6.0719E+04  1.7801E+05  0.0000E+00  0.0000E+00  0.0000E+00
   2.007h  2.9508E+04  0.0000E+00  0.0000E+00  0.0000E+00  9.0000E+01  9.0000E+01  9.0000E+01  0.0000E+00  1.0752E+00

  rolling -1.7860E+04  2.9517E+02 -4.2211E+04  1.0061E+04 -5.9408E+04  4.4288E+03  2.7078E+03  0.0000E+00  0.0000E+00
 averages -3.1155E+04  0.0000E+00  2.2033E+04 -2.1721E+05  6.0395E+04  1.7884E+05  0.0000E+00  0.0000E+00  0.0000E+00
           2.9653E+04  0.0000E+00  0.0000E+00  0.0000E+00  9.0000E+01  9.0000E+01  9.0000E+01  0.0000E+00  9.4706E-03
 ------------------------------------------------------------------------------------------------------------------------
    49100 -1.7859E+04  2.9363E+02 -4.2058E+04  1.0535E+04 -5.9861E+04  4.5246E+03  2.7435E+03  0.0000E+00  0.0000E+00
  24.550p -3.0075E+04  0.0000E+00  1.8963E+04 -2.2368E+05  6.0977E+04  1.8167E+05  0.0000E+00  0.0000E+00  0.0000E+00
   2.011h  2.9529E+04  0.0000E+00  0.0000E+00  0.0000E+00  9.0000E+01  9.0000E+01  9.0000E+01  0.0000E+00  5.5529E-01

  rolling -1.7860E+04  2.9509E+02 -4.2218E+04  1.0055E+04 -5.9419E+04  4.4289E+03  2.7177E+03  0.0000E+00  0.0000E+00
 averages -3.1174E+04  0.0000E+00  2.2054E+04 -2.1721E+05  6.0399E+04  1.7886E+05  0.0000E+00  0.0000E+00  0.0000E+00
           2.9631E+04  0.0000E+00  0.0000E+00  0.0000E+00  9.0000E+01  9.0000E+01  9.0000E+01  0.0000E+00  4.5107E-03
 ------------------------------------------------------------------------------------------------------------------------
    49200 -1.7859E+04  2.9588E+02 -4.2086E+04  9.9892E+03 -5.9334E+04  4.5472E+03  2.7117E+03  0.0000E+00  0.0000E+00
  24.600p -3.2009E+04  0.0000E+00  2.5101E+04 -2.1565E+05  6.0566E+04  1.8019E+05  0.0000E+00  0.0000E+00  0.0000E+00
   2.015h  2.9756E+04  0.0000E+00  0.0000E+00  0.0000E+00  9.0000E+01  9.0000E+01  9.0000E+01  0.0000E+00 -5.4473E-01

  rolling -1.7860E+04  2.9497E+02 -4.2210E+04  1.0038E+04 -5.9400E+04  4.4270E+03  2.7247E+03  0.0000E+00  0.0000E+00
 averages -3.1204E+04  0.0000E+00  2.2145E+04 -2.1695E+05  6.0369E+04  1.7872E+05  0.0000E+00  0.0000E+00  0.0000E+00
           2.9639E+04  0.0000E+00  0.0000E+00  0.0000E+00  9.0000E+01  9.0000E+01  9.0000E+01  0.0000E+00 -1.3718E-02
 ------------------------------------------------------------------------------------------------------------------------
    49300 -1.7860E+04  2.9494E+02 -4.1983E+04  9.8291E+03 -5.8876E+04  4.3554E+03  2.7088E+03  0.0000E+00  0.0000E+00
  24.650p -3.1058E+04  0.0000E+00  2.2383E+04 -2.1319E+05  6.0062E+04  1.7551E+05  0.0000E+00  0.0000E+00  0.0000E+00
   2.019h  2.9895E+04  0.0000E+00  0.0000E+00  0.0000E+00  9.0000E+01  9.0000E+01  9.0000E+01  0.0000E+00 -5.8468E-02

  rolling -1.7860E+04  2.9545E+02 -4.2210E+04  1.0065E+04 -5.9437E+04  4.4318E+03  2.7296E+03  0.0000E+00  0.0000E+00
 averages -3.1130E+04  0.0000E+00  2.2012E+04 -2.1728E+05  6.0415E+04  1.7887E+05  0.0000E+00  0.0000E+00  0.0000E+00
           2.9640E+04  0.0000E+00  0.0000E+00  0.0000E+00  9.0000E+01  9.0000E+01  9.0000E+01  0.0000E+00  1.7482E-02
 ------------------------------------------------------------------------------------------------------------------------
    49400 -1.7858E+04  2.9556E+02 -4.1931E+04  1.0360E+04 -5.9363E+04  4.4938E+03  2.5775E+03  0.0000E+00  0.0000E+00
  24.700p -2.9761E+04  0.0000E+00  1.8761E+04 -2.2098E+05  6.0208E+04  1.7953E+05  0.0000E+00  0.0000E+00  0.0000E+00
   2.023h  2.9682E+04  0.0000E+00  0.0000E+00  0.0000E+00  9.0000E+01  9.0000E+01  9.0000E+01  0.0000E+00  6.1616E-01

  rolling -1.7860E+04  2.9595E+02 -4.2199E+04  1.0068E+04 -5.9437E+04  4.4349E+03  2.7345E+03  0.0000E+00  0.0000E+00
 averages -3.1101E+04  0.0000E+00  2.2052E+04 -2.1723E+05  6.0445E+04  1.7884E+05  0.0000E+00  0.0000E+00  0.0000E+00
           2.9660E+04  0.0000E+00  0.0000E+00  0.0000E+00  9.0000E+01  9.0000E+01  9.0000E+01  0.0000E+00  1.7181E-02
 ------------------------------------------------------------------------------------------------------------------------
    49500 -1.7857E+04  2.9730E+02 -4.1921E+04  1.0399E+04 -5.9639E+04  4.5293E+03  2.7896E+03  0.0000E+00  0.0000E+00
  24.750p -2.9217E+04  0.0000E+00  1.7487E+04 -2.2203E+05  6.0770E+04  1.7875E+05  0.0000E+00  0.0000E+00  0.0000E+00
   2.027h  2.9611E+04  0.0000E+00  0.0000E+00  0.0000E+00  9.0000E+01  9.0000E+01  9.0000E+01  0.0000E+00  8.7680E-01

  rolling -1.7860E+04  2.9638E+02 -4.2177E+04  1.0052E+04 -5.9398E+04  4.4367E+03  2.7327E+03  0.0000E+00  0.0000E+00
 averages -3.1091E+04  0.0000E+00  2.2172E+04 -2.1696E+05  6.0425E+04  1.7871E+05  0.0000E+00  0.0000E+00  0.0000E+00
           2.9676E+04  0.0000E+00  0.0000E+00  0.0000E+00  9.0000E+01  9.0000E+01  9.0000E+01  0.0000E+00  1.3000E-03
 ------------------------------------------------------------------------------------------------------------------------
 ------------------------------------------------------------------------------------------------------------------------

     step     eng_tot    temp_tot     eng_cfg     eng_vdw     eng_cou     eng_bnd     eng_ang     eng_dih     eng_tet
 time          eng_pv    temp_rot     vir_cfg     vir_vdw     vir_cou     vir_bnd     vir_ang     vir_con     vir_tet
 cpu time      volume    temp_shl     eng_shl     vir_shl       alpha        beta       gamma     vir_pmf       press

 ------------------------------------------------------------------------------------------------------------------------
    49600 -1.7858E+04  2.9873E+02 -4.1906E+04  9.8415E+03 -5.8842E+04  4.4598E+03  2.6341E+03  0.0000E+00  0.0000E+00
  24.800p -3.1768E+04  0.0000E+00  2.5453E+04 -2.1343E+05  5.9959E+04  1.7893E+05  0.0000E+00  0.0000E+00  0.0000E+00
   2.031h  2.9907E+04  0.0000E+00  0.0000E+00  0.0000E+00  9.0000E+01  9.0000E+01  9.0000E+01  0.0000E+00 -5.6743E-01

  rolling -1.7860E+04  2.9660E+02 -4.2138E+04  1.0036E+04 -5.9346E+04  4.4397E+03  2.7328E+03  0.0000E+00  0.0000E+00
 averages -3.1083E+04  0.0000E+00  2.2303E+04 -2.1667E+05  6.0397E+04  1.7858E+05  0.0000E+00  0.0000E+00  0.0000E+00
           2.9698E+04  0.0000E+00  0.0000E+00  0.0000E+00  9.0000E+01  9.0000E+01  9.0000E+01  0.0000E+00 -1.9529E-02
 ------------------------------------------------------------------------------------------------------------------------
    49700 -1.7857E+04  2.9659E+02 -4.1760E+04  9.6673E+03 -5.8507E+04  4.4756E+03  2.6043E+03  0.0000E+00  0.0000E+00
  24.850p -3.1537E+04  0.0000E+00  2.4799E+04 -2.1068E+05  5.9903E+04  1.7557E+05  0.0000E+00  0.0000E+00  0.0000E+00
   2.035h  3.0076E+04  0.0000E+00  0.0000E+00  0.0000E+00  9.0000E+01  9.0000E+01  9.0000E+01  0.0000E+00 -4.7438E-01

  rolling -1.7859E+04  2.9711E+02 -4.2104E+04  1.0050E+04 -5.9334E+04  4.4459E+03  2.7344E+03  0.0000E+00  0.0000E+00
 averages -3.0985E+04  0.0000E+00  2.2209E+04 -2.1678E+05  6.0426E+04  1.7857E+05  0.0000E+00  0.0000E+00  0.0000E+00
           2.9720E+04  0.0000E+00  0.0000E+00  0.0000E+00  9.0000E+01  9.0000E+01  9.0000E+01  0.0000E+00  4.7486E-03
 ------------------------------------------------------------------------------------------------------------------------
    49800 -1.7858E+04  3.0319E+02 -4.1954E+04  1.0143E+04 -5.9370E+04  4.5039E+03  2.7701E+03  0.0000E+00  0.0000E+00
  24.900p -3.0149E+04  0.0000E+00  2.1288E+04 -2.1752E+05  6.1007E+04  1.7780E+05  0.0000E+00  0.0000E+00  0.0000E+00
   2.039h  2.9906E+04  0.0000E+00  0.0000E+00  0.0000E+00  9.0000E+01  9.0000E+01  9.0000E+01  0.0000E+00  2.5426E-01

  rolling -1.7859E+04  2.9764E+02 -4.2066E+04  1.0052E+04 -5.9313E+04  4.4509E+03  2.7435E+03  0.0000E+00  0.0000E+00
 averages -3.0922E+04  0.0000E+00  2.2231E+04 -2.1671E+05  6.0446E+04  1.7850E+05  0.0000E+00  0.0000E+00  0.0000E+00
           2.9753E+04  0.0000E+00  0.0000E+00  0.0000E+00  9.0000E+01  9.0000E+01  9.0000E+01  0.0000E+00  8.0552E-03
 ------------------------------------------------------------------------------------------------------------------------
    49900 -1.7858E+04  3.0428E+02 -4.1965E+04  1.0488E+04 -5.9833E+04  4.6257E+03  2.7540E+03  0.0000E+00  0.0000E+00
  24.950p -3.0149E+04  0.0000E+00  2.1457E+04 -2.2241E+05  6.1534E+04  1.8233E+05  0.0000E+00  0.0000E+00  0.0000E+00
   2.043h  2.9799E+04  0.0000E+00  0.0000E+00  0.0000E+00  9.0000E+01  9.0000E+01  9.0000E+01  0.0000E+00  2.3921E-01

  rolling -1.7859E+04  2.9860E+02 -4.2043E+04  1.0047E+04 -5.9296E+04  4.4563E+03  2.7496E+03  0.0000E+00  0.0000E+00
 averages -3.0891E+04  0.0000E+00  2.2386E+04 -2.1654E+05  6.0496E+04  1.7843E+05  0.0000E+00  0.0000E+00  0.0000E+00
           2.9787E+04  0.0000E+00  0.0000E+00  0.0000E+00  9.0000E+01  9.0000E+01  9.0000E+01  0.0000E+00 -6.9855E-03
 ------------------------------------------------------------------------------------------------------------------------
    50000 -1.7856E+04  3.0378E+02 -4.1951E+04  1.0084E+04 -5.9264E+04  4.5056E+03  2.7240E+03  0.0000E+00  0.0000E+00
  25.000p -2.9845E+04  0.0000E+00  2.0495E+04 -2.1656E+05  6.0538E+04  1.7652E+05  0.0000E+00  0.0000E+00  0.0000E+00
   2.047h  2.9950E+04  0.0000E+00  0.0000E+00  0.0000E+00  9.0000E+01  9.0000E+01  9.0000E+01  0.0000E+00  4.0667E-01

  rolling -1.7859E+04  2.9941E+02 -4.2017E+04  1.0050E+04 -5.9280E+04  4.4629E+03  2.7505E+03  0.0000E+00  0.0000E+00
 averages -3.0839E+04  0.0000E+00  2.2460E+04 -2.1649E+05  6.0545E+04  1.7841E+05  0.0000E+00  0.0000E+00  0.0000E+00
           2.9818E+04  0.0000E+00  0.0000E+00  0.0000E+00  9.0000E+01  9.0000E+01  9.0000E+01  0.0000E+00 -9.4554E-03
 ------------------------------------------------------------------------------------------------------------------------


 run terminating. elapsed cpu time =   7.36887E+03, job time = *******d, close time = 1000.00s



 run terminated after   50000 steps. final averages calculated over   50000 steps.


 ------------------------------------------------------------------------------------------------------------------------

     step     eng_tot    temp_tot     eng_cfg     eng_vdw     eng_cou     eng_bnd     eng_ang     eng_dih     eng_tet
 time          eng_pv    temp_rot     vir_cfg     vir_vdw     vir_cou     vir_bnd     vir_ang     vir_con     vir_tet
 cpu time      volume    temp_shl     eng_shl     vir_shl       alpha        beta       gamma     vir_pmf       press

 ------------------------------------------------------------------------------------------------------------------------
    50000 -1.7858E+04  2.9763E+02 -4.1995E+04  1.0009E+04 -5.9203E+04  4.4624E+03  2.7365E+03  0.0000E+00  0.0000E+00
  25.000p -3.0861E+04  0.0000E+00  2.2261E+04 -2.1636E+05  6.0449E+04  1.7817E+05  0.0000E+00  0.0000E+00  0.0000E+00
   2.047h  2.9673E+04  0.0000E+00  0.0000E+00  0.0000E+00  9.0000E+01  9.0000E+01  9.0000E+01  0.0000E+00  1.7136E-02

  r.m.s.   1.3633E+01  2.4969E+01  1.3636E+03  4.6441E+02  1.6059E+03  1.0021E+03  2.6241E+02  0.0000E+00  0.0000E+00
 fluctn.   1.9182E+04  0.0000E+00  5.7033E+04  7.0069E+03  1.6522E+03  5.4707E+04  0.0000E+00  0.0000E+00  0.0000E+00
           3.2762E+02  0.0000E+00  0.0000E+00  0.0000E+00  2.0318E-13  2.0318E-13  2.0318E-13  0.0000E+00  1.0515E+01
 ------------------------------------------------------------------------------------------------------------------------


            Approximate 3D Diffusion  coefficients (10^-9 m^2 / s)

            atom        D 
            OW         2.0964E+00
            HW         2.0850E+00


                Average pressure tensor                                       r.m.s. fluctuations 

           4.9193E-02  2.5621E-02 -2.5800E-02                          1.0665E+01  8.6734E-01  8.1232E-01
           2.5621E-02  1.3244E-03 -3.8402E-02                          8.6734E-01  1.0409E+01  8.2735E-01
          -2.5800E-02 -3.8402E-02  8.9111E-04                          8.1232E-01  8.2735E-01  1.0604E+01

            trace/3.   1.7136E-02


                 Average cell vectors                                         r.m.s. fluctuations 

       30.9587049330        0.0000000000        0.0000000000           1.1405E-01  0.0000E+00  0.0000E+00
        0.0000000000       30.9587049330        0.0000000000           0.0000E+00  1.1405E-01  0.0000E+00
        0.0000000000        0.0000000000       30.9587049330           0.0000E+00  0.0000E+00  1.1405E-01


 sample of final configuration

      i       x(i)        y(i)        z(i)       vx(i)       vy(i)       vz(i)       fx(i)       fy(i)       fz(i)


      1 -1.5222E+01 -3.5939E+00 -1.5355E-01  4.9002E+00  9.9745E-01  2.0403E+00 -1.8774E+04 -4.7965E+03  6.5389E+03
    151 -1.1037E+00  1.4691E+01 -5.7357E+00 -8.3123E+00  6.0127E+00  1.1589E+00  3.0323E+03 -7.6997E+03  4.4208E+03
    301 -7.3680E+00 -5.5892E-01 -2.5313E+00 -3.7163E+00  1.8064E+00  2.2136E+00  9.4268E+03 -2.6885E+04 -1.1373E+03
    451  7.6987E-02 -8.5101E+00  3.8320E+00  4.3579E+00  2.9977E+00 -5.3354E+00  1.2332E+03 -1.8724E+04 -5.2428E+03
    601 -1.3809E+01  6.0034E+00 -1.3635E+01  3.1165E-01 -7.0766E+00  1.2251E+00  2.6649E+04  3.0788E+03 -1.1643E+04
    751  1.0682E+01  1.2921E+01  8.1262E+00 -2.9618E+00  5.0144E+00  1.2768E+01  1.9458E+04  8.8935E+03  1.2608E+04
    901 -1.2877E+01  8.7345E+00  9.2544E+00 -5.3995E-01  1.7371E+00  1.5195E+00 -2.2502E+03 -1.0535E+04 -9.2062E+03
   1051 -1.5399E+00 -7.6417E+00  7.4000E+00  5.3744E+00 -3.7501E+00  2.8383E+00 -3.9851E+03 -4.3819E+02  1.0657E+04
   1201  7.3475E+00  1.2344E+01  5.0646E-01 -3.7511E+00  8.6736E+00 -2.4345E+00  3.8373E+03  1.0623E+04  8.6023E+03
   1351  1.0116E+01  7.9475E+00  1.4276E+01 -3.4111E+00  1.6463E+00  2.1339E+00 -5.1508E+03 -3.3715E+03  9.5681E+03
   1501  7.9904E+00  1.3382E+01  1.4965E+01  8.0889E+00  1.8213E+00 -3.1448E+00 -5.3776E+03  2.0354E+04  4.7040E+03
   1651  1.1374E+01  8.4682E+00  1.0239E+01  3.5942E+00 -5.7165E+00 -2.2231E+00  2.4658E+03 -1.4862E+04 -2.6270E+03
   1801 -8.4312E+00 -3.6482E+00  7.5439E+00  9.5219E-01 -3.4009E+00 -3.5432E+00  4.8823E+03 -5.0371E+03 -3.1365E+03
   1951  1.1247E+01 -4.4727E+00 -1.2856E+01 -3.0816E-01 -1.2159E+00  2.7482E+00 -4.8525E+03  6.5450E+03 -1.0326E+04
   2101  1.0538E+01  2.5544E+00 -9.3903E+00  4.7952E+00  5.7316E-01  2.5040E+00  3.0964E+03 -3.1490E+04 -3.7046E+03
   2251  7.0168E+00  6.4116E+00  1.2917E+01 -2.1109E+00  1.4287E+00 -4.5322E+00 -1.7634E+03  4.9686E+03 -1.5270E+04
   2401  3.4353E+00 -2.4996E+00 -7.0901E+00  2.1152E+00 -2.4372E+00  1.6971E+00 -9.9024E+03  4.7202E+03  9.6743E+03
   2551 -2.8462E+00 -1.5117E+00 -1.1072E+01  2.1760E+00 -3.9727E+00 -2.9117E+00  1.2872E+04 -1.1187E+03  1.3432E+04
   2701 -2.2756E+00  7.4236E-01 -9.5336E+00 -2.5885E+00 -1.6536E+00 -4.7489E-01  3.9758E+03  3.0141E+04 -1.1376E+04
   2851 -1.0337E+01 -1.1594E+01 -5.2065E+00  6.3037E+00  4.9753E+00  1.8156E-01 -4.2540E+03 -1.6469E+04  1.9377E+04

 time elapsed since job start =        7368.948 seconds

