
                    DL_POLY Classic 1.9

                              Running on    1 nodes


 ************************************************************************************************************************
 ************************************************************************************************************************
 ************************************************************************************************************************
 ***************     DL_POLY CONTROL file                                                                 ***************
 ************************************************************************************************************************
 ************************************************************************************************************************
 ************************************************************************************************************************


 SIMULATION CONTROL PARAMETERS


 simulation temperature           2.9800E+02

 simulation pressure (katm)       1.0000E-03

 Nose-Hoover  (Melchionna) isotropic N-P-T 
 thermostat relaxation time       1.0000E-01
 barostat relaxation time         1.0000E-01

 simulation timestep              5.0000E-04

 selected number of timesteps       200000

 real space cut off               9.0000E+00

 real space cut off (vdw)         9.0000E+00

 border width of Verlet shell     5.0000E-01


 Electrostatics : Shifted Coulombic potential

 trajectory file option on  
 trajectory file start                   1
 trajectory file interval             1000
 trajectory file info key                0

 data printing interval                100

 data stacking interval               1000

 statistics file interval             1000

 user allocated job time (d)    ********

 job closure time        (s)    1000.000


SYSTEM SPECIFICATION

 energy units=kjoule/mol 


 number of molecular types               1

 molecular species type                  1


 name of species:             water                                   

 number of molecules                   267

 number of atoms/sites                   3


 atomic characteristics:

                      site     name          mass        charge    repeat    freeze

                         1     HW           1.00800     0.41000         1         0
                         2     OW          15.99900    -0.82000         1         0
                         3     HW           1.00800     0.41000         1         0

 number of chemical bonds                2


 chemical bond details:

                            key     index     index                            parameters

                           harm         1         2     4.431530E+03   1.012000E+00   0.000000E+00   0.000000E+00
                           harm         2         3     4.431530E+03   1.012000E+00   0.000000E+00   0.000000E+00

 number of bond angles                   1


 bond angle details:

                            key     index     index     index     f-const       angle

                           harm         1         2         3  3.1756E+02  113.240000    0.000000    0.000000    0.000000    0.000000


 number of specified pair potentials         3


                atom 1  atom 2      key                              parameters


                HW      HW        lj       0.00000E+00  0.00000E+00
                OW      HW        lj       0.00000E+00  1.58300E+00
                OW      OW        lj       6.50000E-01  3.16600E+00

 configuration file name: 

          box                                                                             


 selected image convention               1


 simulation cell vectors


                        20.000000    0.000000    0.000000
                         0.000000   20.000000    0.000000
                         0.000000    0.000000   20.000000


 system volume            8000.00000000    


 total degrees of freedom                      2400.
 rotational degrees of freedom                    0.
 shell pseudo degrees of freedom                  0.


 sample of starting configuration

      i       x(i)        y(i)        z(i)       vx(i)       vy(i)       vz(i)       fx(i)       fy(i)       fz(i)


      1  8.2608E+00  3.1793E+00  4.1764E+00  3.2165E+01 -7.3575E+00 -1.6778E+01  2.1022E+03 -1.2451E+04  7.4059E+03
     42 -4.9599E+00  6.1341E-01  6.9152E+00  1.8748E+01 -1.5779E+01  6.1064E+00 -2.0981E+03 -4.3175E+03 -5.8963E+02
     83 -6.8855E+00 -9.1209E+00 -5.6810E+00 -3.5706E+00 -3.3020E+00  5.4151E+00  2.3782E+03  1.4880E+03 -5.4705E+03
    124 -4.8728E-01 -9.0066E+00 -4.7724E+00  1.3508E+01  1.0646E+01 -2.0666E+01 -1.1050E+03 -9.1613E+03  1.1365E+03
    165  8.3387E+00  7.2985E+00 -9.6070E+00 -9.0952E+00  1.7967E+00  2.0850E+01  6.0341E+03 -1.2326E+03 -1.2823E+04
    206 -6.3566E-01  1.7201E-01 -8.2188E+00  3.3254E+00  1.7865E+00 -1.7420E+00  8.2491E+03  5.0563E+02  1.4479E+03
    247 -2.1146E-02  6.9069E+00  1.0431E-02 -5.3033E+00 -1.5445E+01  6.2406E-01 -1.1033E+04  1.3837E+04  2.6766E+04
    288  5.6098E+00  2.2195E+00 -9.8882E+00 -1.5168E+01  1.4891E+00 -1.9272E+01 -3.8277E+03  3.3643E+03 -3.3191E+02
    329  2.5044E+00 -3.7055E+00 -7.9527E+00 -9.3545E+00  2.0899E+00  3.7897E+00 -5.2939E+03  8.5438E+03 -1.7386E+04
    370  1.3478E+00 -9.9651E+00  1.0164E+00  7.2867E+00  4.1140E+00 -2.1420E+00  8.4308E+03 -3.2113E+03 -5.0057E+03
    411 -5.3995E+00 -7.4439E+00 -1.3942E+00  2.7856E+01  2.3396E+01 -1.4156E+00 -8.7455E+01 -3.0278E+03  1.3705E+03
    452  6.8088E+00 -6.1485E+00  9.2854E+00  1.0195E+00 -3.0426E-01 -7.5045E-01  1.8635E+03  1.8088E+03 -4.9448E+02
    493 -3.3775E+00 -3.7014E+00 -6.4831E+00 -7.0065E+00 -1.8226E+01  2.4718E+01  1.4254E+03 -1.7018E+03  1.2347E+04
    534  5.6677E+00  4.9687E+00  8.5150E+00  1.2390E+00  1.9512E+01 -4.7086E+00 -3.3554E+03 -5.8295E+03 -7.0951E+03
    575 -7.8853E+00 -6.5797E+00 -8.8843E+00 -3.9852E+00  5.9303E+00  1.3682E+00  6.8466E+03 -7.8704E+02  1.2428E+04
    616  9.0744E+00  8.7800E+00  5.7682E+00  1.6814E+01  1.7552E+01 -2.0071E+01 -3.0180E+03  1.6915E+04 -1.1338E+04
    657 -9.4571E+00 -3.7731E+00  5.1883E+00 -9.3982E-01 -2.7752E+01  1.3251E+00 -9.3078E+02  1.0866E+03 -3.6936E+02
    698 -9.2910E+00 -2.5091E+00  2.6019E+00 -1.6555E+00 -7.2201E+00 -3.8462E+00  1.2283E+04  1.5579E+04  8.1754E+03
    739  9.3513E-01  9.7738E+00  6.6318E+00 -2.2647E+01  6.2893E+00 -3.8634E+00 -3.1005E+03  5.8637E+03 -3.8838E+02
    780  5.6105E+00  1.5512E+00  1.1896E+00  1.5540E+01  1.1556E+01 -1.5922E+01 -6.5515E+03 -2.1604E+03  8.8192E+03


long range correction for: vdw energy    -0.669928E+02
                         : vdw pressure  -0.274300E+00

 time elapsed since job start =           0.009 seconds

 ------------------------------------------------------------------------------------------------------------------------

     step     eng_tot    temp_tot     eng_cfg     eng_vdw     eng_cou     eng_bnd     eng_ang     eng_dih     eng_tet
 time          eng_pv    temp_rot     vir_cfg     vir_vdw     vir_cou     vir_bnd     vir_ang     vir_con     vir_tet
 cpu time      volume    temp_shl     eng_shl     vir_shl       alpha        beta       gamma     vir_pmf       press

 ------------------------------------------------------------------------------------------------------------------------
        1 -7.8847E+03  3.0081E+02 -1.0886E+04  2.7722E+03 -1.5733E+04  1.2155E+03  8.5886E+02  0.0000E+00  0.0000E+00
   0.500f -8.5597E+03  0.0000E+00  8.0264E+03 -5.8842E+04  1.6428E+04  5.0440E+04  0.0000E+00  0.0000E+00  0.0000E+00
   0.025s  7.9998E+03  0.0000E+00  0.0000E+00  0.0000E+00  9.0000E+01  9.0000E+01  9.0000E+01  0.0000E+00 -1.3820E+00

  rolling -7.8847E+03  3.0081E+02 -1.0886E+04  2.7722E+03 -1.5733E+04  1.2155E+03  8.5886E+02  0.0000E+00  0.0000E+00
 averages -8.5597E+03  0.0000E+00  8.0264E+03 -5.8842E+04  1.6428E+04  5.0440E+04  0.0000E+00  0.0000E+00  0.0000E+00
           7.9998E+03  0.0000E+00  0.0000E+00  0.0000E+00  9.0000E+01  9.0000E+01  9.0000E+01  0.0000E+00 -1.3820E+00
 ------------------------------------------------------------------------------------------------------------------------
      100 -7.8814E+03  2.9484E+02 -1.0834E+04  2.6781E+03 -1.5506E+04  1.2972E+03  6.9655E+02  0.0000E+00  0.0000E+00
  50.000f -7.2418E+03  0.0000E+00  3.9320E+03 -5.7882E+04  1.6203E+04  4.5611E+04  0.0000E+00  0.0000E+00  0.0000E+00
   0.695s  7.9256E+03  0.0000E+00  0.0000E+00  0.0000E+00  9.0000E+01  9.0000E+01  9.0000E+01  0.0000E+00  1.3451E+00

  rolling -7.8849E+03  3.0144E+02 -1.0898E+04  2.5770E+03 -1.5341E+04  1.1651E+03  7.0074E+02  0.0000E+00  0.0000E+00
 averages -7.9694E+03  0.0000E+00  6.2525E+03 -5.6165E+04  1.6180E+04  4.6237E+04  0.0000E+00  0.0000E+00  0.0000E+00
           8.0321E+03  0.0000E+00  0.0000E+00  0.0000E+00  9.0000E+01  9.0000E+01  9.0000E+01  0.0000E+00 -1.5642E-01
 ------------------------------------------------------------------------------------------------------------------------
      200 -7.8840E+03  3.0378E+02 -1.0969E+04  2.3921E+03 -1.5137E+04  1.1083E+03  6.6752E+02  0.0000E+00  0.0000E+00
 100.000f -7.9594E+03  0.0000E+00  6.1251E+03 -5.4052E+04  1.5831E+04  4.4346E+04  0.0000E+00  0.0000E+00  0.0000E+00
   1.377s  7.9189E+03  0.0000E+00  0.0000E+00  0.0000E+00  9.0000E+01  9.0000E+01  9.0000E+01  0.0000E+00 -4.3644E-02

  rolling -7.8847E+03  3.0327E+02 -1.0928E+04  2.5836E+03 -1.5380E+04  1.1676E+03  7.0136E+02  0.0000E+00  0.0000E+00
 averages -7.9590E+03  0.0000E+00  6.2226E+03 -5.6482E+04  1.6130E+04  4.6575E+04  0.0000E+00  0.0000E+00  0.0000E+00
           7.9644E+03  0.0000E+00  0.0000E+00  0.0000E+00  9.0000E+01  9.0000E+01  9.0000E+01  0.0000E+00 -1.1262E-01
 ------------------------------------------------------------------------------------------------------------------------
      300 -7.8835E+03  2.8827E+02 -1.0864E+04  2.5373E+03 -1.5343E+04  1.2029E+03  7.3814E+02  0.0000E+00  0.0000E+00
 150.000f -9.0408E+03  0.0000E+00  8.9104E+03 -5.6423E+04  1.6173E+04  4.9161E+04  0.0000E+00  0.0000E+00  0.0000E+00
   2.066s  7.7939E+03  0.0000E+00  0.0000E+00  0.0000E+00  9.0000E+01  9.0000E+01  9.0000E+01  0.0000E+00 -2.2134E+00

  rolling -7.8845E+03  3.0108E+02 -1.0927E+04  2.5852E+03 -1.5378E+04  1.1630E+03  7.0333E+02  0.0000E+00  0.0000E+00
 averages -7.8967E+03  0.0000E+00  5.9301E+03 -5.6680E+04  1.6131E+04  4.6479E+04  0.0000E+00  0.0000E+00  0.0000E+00
           7.9102E+03  0.0000E+00  0.0000E+00  0.0000E+00  9.0000E+01  9.0000E+01  9.0000E+01  0.0000E+00  6.0139E-02
 ------------------------------------------------------------------------------------------------------------------------
      400 -7.8846E+03  3.0283E+02 -1.1048E+04  2.6348E+03 -1.5407E+04  1.1075E+03  6.1579E+02  0.0000E+00  0.0000E+00
 200.000f -6.7526E+03  0.0000E+00  2.2199E+03 -5.7406E+04  1.6324E+04  4.3302E+04  0.0000E+00  0.0000E+00  0.0000E+00
   2.753s  7.8426E+03  0.0000E+00  0.0000E+00  0.0000E+00  9.0000E+01  9.0000E+01  9.0000E+01  0.0000E+00  2.6629E+00

  rolling -7.8845E+03  2.9974E+02 -1.0935E+04  2.5746E+03 -1.5371E+04  1.1597E+03  7.0181E+02  0.0000E+00  0.0000E+00
 averages -7.9414E+03  0.0000E+00  5.9726E+03 -5.6583E+04  1.6140E+04  4.6415E+04  0.0000E+00  0.0000E+00  0.0000E+00
           7.8905E+03  0.0000E+00  0.0000E+00  0.0000E+00  9.0000E+01  9.0000E+01  9.0000E+01  0.0000E+00  1.0464E-02
 ------------------------------------------------------------------------------------------------------------------------
      500 -7.8844E+03  2.8344E+02 -1.0882E+04  2.4796E+03 -1.5245E+04  1.1940E+03  6.9010E+02  0.0000E+00  0.0000E+00
 250.000f -9.2819E+03  0.0000E+00  9.3404E+03 -5.4889E+04  1.6125E+04  4.8104E+04  0.0000E+00  0.0000E+00  0.0000E+00
   4.028s  7.9570E+03  0.0000E+00  0.0000E+00  0.0000E+00  9.0000E+01  9.0000E+01  9.0000E+01  0.0000E+00 -2.5295E+00

  rolling -7.8846E+03  2.9829E+02 -1.0940E+04  2.5845E+03 -1.5382E+04  1.1595E+03  6.9771E+02  0.0000E+00  0.0000E+00
 averages -7.9711E+03  0.0000E+00  5.9732E+03 -5.6683E+04  1.6173E+04  4.6483E+04  0.0000E+00  0.0000E+00  0.0000E+00
           7.8897E+03  0.0000E+00  0.0000E+00  0.0000E+00  9.0000E+01  9.0000E+01  9.0000E+01  0.0000E+00 -1.0329E-02
 ------------------------------------------------------------------------------------------------------------------------
      600 -7.8840E+03  2.8053E+02 -1.0827E+04  2.5240E+03 -1.5255E+04  1.2048E+03  6.9923E+02  0.0000E+00  0.0000E+00
 300.000f -8.6440E+03  0.0000E+00  7.4469E+03 -5.5662E+04  1.6229E+04  4.6879E+04  0.0000E+00  0.0000E+00  0.0000E+00
   4.706s  7.9359E+03  0.0000E+00  0.0000E+00  0.0000E+00  9.0000E+01  9.0000E+01  9.0000E+01  0.0000E+00 -1.2727E+00

  rolling -7.8847E+03  2.9581E+02 -1.0929E+04  2.5915E+03 -1.5374E+04  1.1571E+03  6.9595E+02  0.0000E+00  0.0000E+00
 averages -7.9615E+03  0.0000E+00  5.8537E+03 -5.6742E+04  1.6176E+04  4.6419E+04  0.0000E+00  0.0000E+00  0.0000E+00
           7.8923E+03  0.0000E+00  0.0000E+00  0.0000E+00  9.0000E+01  9.0000E+01  9.0000E+01  0.0000E+00  3.7709E-02
 ------------------------------------------------------------------------------------------------------------------------
      700 -7.8842E+03  2.9321E+02 -1.0858E+04  2.5899E+03 -1.5253E+04  1.1178E+03  6.8704E+02  0.0000E+00  0.0000E+00
 350.000f -6.8453E+03  0.0000E+00  2.5885E+03 -5.6561E+04  1.6534E+04  4.2615E+04  0.0000E+00  0.0000E+00  0.0000E+00
   5.385s  7.9061E+03  0.0000E+00  0.0000E+00  0.0000E+00  9.0000E+01  9.0000E+01  9.0000E+01  0.0000E+00  2.2542E+00

  rolling -7.8848E+03  2.9438E+02 -1.0916E+04  2.5938E+03 -1.5360E+04  1.1566E+03  6.9350E+02  0.0000E+00  0.0000E+00
 averages -7.9821E+03  0.0000E+00  5.8833E+03 -5.6749E+04  1.6211E+04  4.6422E+04  0.0000E+00  0.0000E+00  0.0000E+00
           7.8959E+03  0.0000E+00  0.0000E+00  0.0000E+00  9.0000E+01  9.0000E+01  9.0000E+01  0.0000E+00 -2.8196E-03
 ------------------------------------------------------------------------------------------------------------------------
 ------------------------------------------------------------------------------------------------------------------------

     step     eng_tot    temp_tot     eng_cfg     eng_vdw     eng_cou     eng_bnd     eng_ang     eng_dih     eng_tet
 time          eng_pv    temp_rot     vir_cfg     vir_vdw     vir_cou     vir_bnd     vir_ang     vir_con     vir_tet
 cpu time      volume    temp_shl     eng_shl     vir_shl       alpha        beta       gamma     vir_pmf       press

 ------------------------------------------------------------------------------------------------------------------------
      800 -7.8836E+03  3.0038E+02 -1.0801E+04  2.6665E+03 -1.5496E+04  1.3074E+03  7.2143E+02  0.0000E+00  0.0000E+00
 400.000f -9.4133E+03  0.0000E+00  1.0823E+04 -5.7600E+04  1.6604E+04  5.1819E+04  0.0000E+00  0.0000E+00  0.0000E+00
   6.073s  7.8949E+03  0.0000E+00  0.0000E+00  0.0000E+00  9.0000E+01  9.0000E+01  9.0000E+01  0.0000E+00 -3.3411E+00

  rolling -7.8848E+03  2.9517E+02 -1.0910E+04  2.6001E+03 -1.5366E+04  1.1585E+03  6.9722E+02  0.0000E+00  0.0000E+00
 averages -7.9602E+03  0.0000E+00  5.8750E+03 -5.6826E+04  1.6268E+04  4.6433E+04  0.0000E+00  0.0000E+00  0.0000E+00
           7.8938E+03  0.0000E+00  0.0000E+00  0.0000E+00  9.0000E+01  9.0000E+01  9.0000E+01  0.0000E+00  1.3706E-02
 ------------------------------------------------------------------------------------------------------------------------
      900 -7.8822E+03  3.0293E+02 -1.0719E+04  2.5806E+03 -1.5216E+04  1.1813E+03  7.3510E+02  0.0000E+00  0.0000E+00
 450.000f -6.4706E+03  0.0000E+00  2.3664E+03 -5.6735E+04  1.6320E+04  4.2782E+04  0.0000E+00  0.0000E+00  0.0000E+00
   6.751s  7.8505E+03  0.0000E+00  0.0000E+00  0.0000E+00  9.0000E+01  9.0000E+01  9.0000E+01  0.0000E+00  2.5597E+00

  rolling -7.8847E+03  2.9597E+02 -1.0894E+04  2.5920E+03 -1.5345E+04  1.1594E+03  6.9932E+02  0.0000E+00  0.0000E+00
 averages -7.9542E+03  0.0000E+00  5.9447E+03 -5.6687E+04  1.6283E+04  4.6349E+04  0.0000E+00  0.0000E+00  0.0000E+00
           7.8999E+03  0.0000E+00  0.0000E+00  0.0000E+00  9.0000E+01  9.0000E+01  9.0000E+01  0.0000E+00 -2.3162E-02
 ------------------------------------------------------------------------------------------------------------------------
     1000 -7.8822E+03  3.1011E+02 -1.0726E+04  2.4797E+03 -1.5104E+04  1.2520E+03  6.4539E+02  0.0000E+00  0.0000E+00
 500.000f -8.0398E+03  0.0000E+00  7.4103E+03 -5.5512E+04  1.6198E+04  4.6724E+04  0.0000E+00  0.0000E+00  0.0000E+00
   7.446s  7.8678E+03  0.0000E+00  0.0000E+00  0.0000E+00  9.0000E+01  9.0000E+01  9.0000E+01  0.0000E+00 -8.4853E-01

  rolling -7.8846E+03  2.9765E+02 -1.0883E+04  2.5926E+03 -1.5339E+04  1.1629E+03  7.0052E+02  0.0000E+00  0.0000E+00
 averages -7.9126E+03  0.0000E+00  5.9380E+03 -5.6751E+04  1.6295E+04  4.6394E+04  0.0000E+00  0.0000E+00  0.0000E+00
           7.8894E+03  0.0000E+00  0.0000E+00  0.0000E+00  9.0000E+01  9.0000E+01  9.0000E+01  0.0000E+00  5.1279E-03
 ------------------------------------------------------------------------------------------------------------------------
     1100 -7.8824E+03  2.9668E+02 -1.0580E+04  2.5834E+03 -1.5184E+04  1.2734E+03  7.4809E+02  0.0000E+00  0.0000E+00
 550.000f -8.3920E+03  0.0000E+00  8.2378E+03 -5.6777E+04  1.6171E+04  4.8844E+04  0.0000E+00  0.0000E+00  0.0000E+00
   8.145s  7.8757E+03  0.0000E+00  0.0000E+00  0.0000E+00  9.0000E+01  9.0000E+01  9.0000E+01  0.0000E+00 -1.6076E+00

  rolling -7.8845E+03  2.9756E+02 -1.0856E+04  2.5861E+03 -1.5309E+04  1.1642E+03  7.0276E+02  0.0000E+00  0.0000E+00
 averages -7.8747E+03  0.0000E+00  5.9019E+03 -5.6715E+04  1.6295E+04  4.6321E+04  0.0000E+00  0.0000E+00  0.0000E+00
           7.8755E+03  0.0000E+00  0.0000E+00  0.0000E+00  9.0000E+01  9.0000E+01  9.0000E+01  0.0000E+00  2.8392E-02
 ------------------------------------------------------------------------------------------------------------------------
     1200 -7.8828E+03  3.0477E+02 -1.0693E+04  2.6376E+03 -1.5195E+04  1.1070E+03  7.5659E+02  0.0000E+00  0.0000E+00
 600.000f -5.9214E+03  0.0000E+00  8.8796E+02 -5.7364E+04  1.6113E+04  4.2138E+04  0.0000E+00  0.0000E+00  0.0000E+00
   8.830s  7.9046E+03  0.0000E+00  0.0000E+00  0.0000E+00  9.0000E+01  9.0000E+01  9.0000E+01  0.0000E+00  3.5893E+00

  rolling -7.8844E+03  2.9831E+02 -1.0835E+04  2.5812E+03 -1.5287E+04  1.1666E+03  7.0405E+02  0.0000E+00  0.0000E+00
 averages -7.8444E+03  0.0000E+00  5.9110E+03 -5.6647E+04  1.6291E+04  4.6267E+04  0.0000E+00  0.0000E+00  0.0000E+00
           7.8757E+03  0.0000E+00  0.0000E+00  0.0000E+00  9.0000E+01  9.0000E+01  9.0000E+01  0.0000E+00  3.2165E-02
 ------------------------------------------------------------------------------------------------------------------------
     1300 -7.8830E+03  3.0620E+02 -1.0789E+04  2.5943E+03 -1.5381E+04  1.2533E+03  7.4454E+02  0.0000E+00  0.0000E+00
 650.000f -8.7781E+03  0.0000E+00  9.2425E+03 -5.6664E+04  1.6417E+04  4.9490E+04  0.0000E+00  0.0000E+00  0.0000E+00
   9.505s  7.9481E+03  0.0000E+00  0.0000E+00  0.0000E+00  9.0000E+01  9.0000E+01  9.0000E+01  0.0000E+00 -2.1528E+00

  rolling -7.8843E+03  2.9898E+02 -1.0814E+04  2.5717E+03 -1.5261E+04  1.1688E+03  7.0601E+02  0.0000E+00  0.0000E+00
 averages -7.8542E+03  0.0000E+00  6.0354E+03 -5.6457E+04  1.6279E+04  4.6213E+04  0.0000E+00  0.0000E+00  0.0000E+00
           7.8941E+03  0.0000E+00  0.0000E+00  0.0000E+00  9.0000E+01  9.0000E+01  9.0000E+01  0.0000E+00 -4.4667E-02
 ------------------------------------------------------------------------------------------------------------------------
     1400 -7.8834E+03  2.8684E+02 -1.0695E+04  2.2532E+03 -1.4807E+04  1.1283E+03  7.3072E+02  0.0000E+00  0.0000E+00
 700.000f -8.7366E+03  0.0000E+00  8.4339E+03 -5.1564E+04  1.5731E+04  4.4267E+04  0.0000E+00  0.0000E+00  0.0000E+00
  10.184s  8.1506E+03  0.0000E+00  0.0000E+00  0.0000E+00  9.0000E+01  9.0000E+01  9.0000E+01  0.0000E+00 -1.8164E+00

  rolling -7.8842E+03  2.9923E+02 -1.0794E+04  2.5769E+03 -1.5250E+04  1.1715E+03  7.0740E+02  0.0000E+00  0.0000E+00
 averages -7.8174E+03  0.0000E+00  5.9968E+03 -5.6480E+04  1.6284E+04  4.6193E+04  0.0000E+00  0.0000E+00  0.0000E+00
           7.9116E+03  0.0000E+00  0.0000E+00  0.0000E+00  9.0000E+01  9.0000E+01  9.0000E+01  0.0000E+00 -1.2299E-02
 ------------------------------------------------------------------------------------------------------------------------
     1500 -7.8834E+03  2.9148E+02 -1.0818E+04  2.4858E+03 -1.5225E+04  1.1714E+03  7.4991E+02  0.0000E+00  0.0000E+00
 750.000f -7.3454E+03  0.0000E+00  4.1223E+03 -5.5190E+04  1.6223E+04  4.3090E+04  0.0000E+00  0.0000E+00  0.0000E+00
  10.861s  8.0039E+03  0.0000E+00  0.0000E+00  0.0000E+00  9.0000E+01  9.0000E+01  9.0000E+01  0.0000E+00  1.1562E+00

  rolling -7.8841E+03  2.9922E+02 -1.0778E+04  2.5796E+03 -1.5243E+04  1.1727E+03  7.1318E+02  0.0000E+00  0.0000E+00
 averages -7.7763E+03  0.0000E+00  5.9230E+03 -5.6526E+04  1.6279E+04  4.6169E+04  0.0000E+00  0.0000E+00  0.0000E+00
           7.9191E+03  0.0000E+00  0.0000E+00  0.0000E+00  9.0000E+01  9.0000E+01  9.0000E+01  0.0000E+00  3.9131E-02
 ------------------------------------------------------------------------------------------------------------------------
 ------------------------------------------------------------------------------------------------------------------------

     step     eng_tot    temp_tot     eng_cfg     eng_vdw     eng_cou     eng_bnd     eng_ang     eng_dih     eng_tet
 time          eng_pv    temp_rot     vir_cfg     vir_vdw     vir_cou     vir_bnd     vir_ang     vir_con     vir_tet
 cpu time      volume    temp_shl     eng_shl     vir_shl       alpha        beta       gamma     vir_pmf       press

 ------------------------------------------------------------------------------------------------------------------------
     1600 -7.8846E+03  3.0186E+02 -1.0986E+04  2.7304E+03 -1.5641E+04  1.1760E+03  7.4859E+02  0.0000E+00  0.0000E+00
 800.000f -8.7102E+03  0.0000E+00  8.2308E+03 -5.8612E+04  1.6445E+04  5.0398E+04  0.0000E+00  0.0000E+00  0.0000E+00
  11.536s  7.8999E+03  0.0000E+00  0.0000E+00  0.0000E+00  9.0000E+01  9.0000E+01  9.0000E+01  0.0000E+00 -1.5263E+00

  rolling -7.8840E+03  3.0065E+02 -1.0782E+04  2.5773E+03 -1.5252E+04  1.1744E+03  7.1892E+02  0.0000E+00  0.0000E+00
 averages -7.7889E+03  0.0000E+00  6.0205E+03 -5.6490E+04  1.6301E+04  4.6209E+04  0.0000E+00  0.0000E+00  0.0000E+00
           7.9265E+03  0.0000E+00  0.0000E+00  0.0000E+00  9.0000E+01  9.0000E+01  9.0000E+01  0.0000E+00 -7.7366E-03
 ------------------------------------------------------------------------------------------------------------------------
     1700 -7.8862E+03  2.9048E+02 -1.0940E+04  2.6462E+03 -1.5364E+04  1.0760E+03  7.0103E+02  0.0000E+00  0.0000E+00
 850.000f -7.0921E+03  0.0000E+00  2.9471E+03 -5.7566E+04  1.5961E+04  4.4552E+04  0.0000E+00  0.0000E+00  0.0000E+00
  12.217s  7.8786E+03  0.0000E+00  0.0000E+00  0.0000E+00  9.0000E+01  9.0000E+01  9.0000E+01  0.0000E+00  1.9757E+00

  rolling -7.8840E+03  3.0148E+02 -1.0792E+04  2.5759E+03 -1.5269E+04  1.1737E+03  7.2763E+02  0.0000E+00  0.0000E+00
 averages -7.7765E+03  0.0000E+00  5.9929E+03 -5.6487E+04  1.6280E+04  4.6199E+04  0.0000E+00  0.0000E+00  0.0000E+00
           7.9259E+03  0.0000E+00  0.0000E+00  0.0000E+00  9.0000E+01  9.0000E+01  9.0000E+01  0.0000E+00  2.2829E-02
 ------------------------------------------------------------------------------------------------------------------------
     1800 -7.8848E+03  2.8737E+02 -1.0926E+04  2.7658E+03 -1.5550E+04  1.1484E+03  7.0943E+02  0.0000E+00  0.0000E+00
 900.000f -7.1504E+03  0.0000E+00  3.0083E+03 -5.9355E+04  1.6691E+04  4.5672E+04  0.0000E+00  0.0000E+00  0.0000E+00
  12.903s  7.8264E+03  0.0000E+00  0.0000E+00  0.0000E+00  9.0000E+01  9.0000E+01  9.0000E+01  0.0000E+00  1.9029E+00

  rolling -7.8840E+03  3.0019E+02 -1.0798E+04  2.5714E+03 -1.5270E+04  1.1715E+03  7.2871E+02  0.0000E+00  0.0000E+00
 averages -7.8100E+03  0.0000E+00  6.0119E+03 -5.6443E+04  1.6249E+04  4.6206E+04  0.0000E+00  0.0000E+00  0.0000E+00
           7.9264E+03  0.0000E+00  0.0000E+00  0.0000E+00  9.0000E+01  9.0000E+01  9.0000E+01  0.0000E+00 -8.1813E-03
 ------------------------------------------------------------------------------------------------------------------------
     1900 -7.8844E+03  2.8860E+02 -1.0916E+04  2.7222E+03 -1.5618E+04  1.2392E+03  7.4054E+02  0.0000E+00  0.0000E+00
 950.000f -8.9837E+03  0.0000E+00  8.6013E+03 -5.8706E+04  1.6650E+04  5.0658E+04  0.0000E+00  0.0000E+00  0.0000E+00
  13.587s  7.8566E+03  0.0000E+00  0.0000E+00  0.0000E+00  9.0000E+01  9.0000E+01  9.0000E+01  0.0000E+00 -1.9763E+00

  rolling -7.8841E+03  2.9896E+02 -1.0816E+04  2.5786E+03 -1.5292E+04  1.1689E+03  7.2914E+02  0.0000E+00  0.0000E+00
 averages -7.8222E+03  0.0000E+00  5.9331E+03 -5.6583E+04  1.6255E+04  4.6261E+04  0.0000E+00  0.0000E+00  0.0000E+00
           7.9199E+03  0.0000E+00  0.0000E+00  0.0000E+00  9.0000E+01  9.0000E+01  9.0000E+01  0.0000E+00  2.9076E-02
 ------------------------------------------------------------------------------------------------------------------------
     2000 -7.8855E+03  2.9429E+02 -1.0914E+04  2.5119E+03 -1.5271E+04  1.1130E+03  7.3182E+02  0.0000E+00  0.0000E+00
   1.000p -6.8291E+03  0.0000E+00  2.4273E+03 -5.5381E+04  1.6177E+04  4.1631E+04  0.0000E+00  0.0000E+00  0.0000E+00
  14.386s  7.9621E+03  0.0000E+00  0.0000E+00  0.0000E+00  9.0000E+01  9.0000E+01  9.0000E+01  0.0000E+00  2.3637E+00

  rolling -7.8842E+03  2.9676E+02 -1.0829E+04  2.5787E+03 -1.5301E+04  1.1645E+03  7.2845E+02  0.0000E+00  0.0000E+00
 averages -7.8759E+03  0.0000E+00  5.9449E+03 -5.6524E+04  1.6249E+04  4.6220E+04  0.0000E+00  0.0000E+00  0.0000E+00
           7.9337E+03  0.0000E+00  0.0000E+00  0.0000E+00  9.0000E+01  9.0000E+01  9.0000E+01  0.0000E+00 -9.5821E-03
 ------------------------------------------------------------------------------------------------------------------------
     2100 -7.8848E+03  3.0211E+02 -1.0913E+04  2.4171E+03 -1.5204E+04  1.1493E+03  7.2491E+02  0.0000E+00  0.0000E+00
   1.050p -9.1737E+03  0.0000E+00  9.8535E+03 -5.4138E+04  1.6152E+04  4.7840E+04  0.0000E+00  0.0000E+00  0.0000E+00
  15.090s  7.9639E+03  0.0000E+00  0.0000E+00  0.0000E+00  9.0000E+01  9.0000E+01  9.0000E+01  0.0000E+00 -2.6237E+00

  rolling -7.8844E+03  2.9689E+02 -1.0861E+04  2.5927E+03 -1.5344E+04  1.1641E+03  7.2614E+02  0.0000E+00  0.0000E+00
 averages -7.9036E+03  0.0000E+00  5.9374E+03 -5.6691E+04  1.6269E+04  4.6359E+04  0.0000E+00  0.0000E+00  0.0000E+00
           7.9338E+03  0.0000E+00  0.0000E+00  0.0000E+00  9.0000E+01  9.0000E+01  9.0000E+01  0.0000E+00 -2.2066E-03
 ------------------------------------------------------------------------------------------------------------------------
     2200 -7.8859E+03  3.0581E+02 -1.0903E+04  2.5302E+03 -1.5195E+04  1.1140E+03  6.4740E+02  0.0000E+00  0.0000E+00
   1.100p -8.0657E+03  0.0000E+00  6.7429E+03 -5.6287E+04  1.5916E+04  4.7114E+04  0.0000E+00  0.0000E+00  0.0000E+00
  15.778s  7.8149E+03  0.0000E+00  0.0000E+00  0.0000E+00  9.0000E+01  9.0000E+01  9.0000E+01  0.0000E+00 -4.4782E-01

  rolling -7.8845E+03  2.9579E+02 -1.0875E+04  2.5927E+03 -1.5351E+04  1.1603E+03  7.2384E+02  0.0000E+00  0.0000E+00
 averages -7.9117E+03  0.0000E+00  5.8670E+03 -5.6698E+04  1.6264E+04  4.6301E+04  0.0000E+00  0.0000E+00  0.0000E+00
           7.9303E+03  0.0000E+00  0.0000E+00  0.0000E+00  9.0000E+01  9.0000E+01  9.0000E+01  0.0000E+00  3.2104E-02
 ------------------------------------------------------------------------------------------------------------------------
     2300 -7.8861E+03  3.1307E+02 -1.0947E+04  2.6913E+03 -1.5374E+04  1.0256E+03  7.1045E+02  0.0000E+00  0.0000E+00
   1.150p -6.0646E+03  0.0000E+00  9.7095E+02 -5.8341E+04  1.6447E+04  4.2865E+04  0.0000E+00  0.0000E+00  0.0000E+00
  16.472s  7.8174E+03  0.0000E+00  0.0000E+00  0.0000E+00  9.0000E+01  9.0000E+01  9.0000E+01  0.0000E+00  3.6870E+00

  rolling -7.8845E+03  2.9579E+02 -1.0889E+04  2.5982E+03 -1.5368E+04  1.1599E+03  7.2066E+02  0.0000E+00  0.0000E+00
 averages -7.9107E+03  0.0000E+00  5.8223E+03 -5.6831E+04  1.6288E+04  4.6366E+04  0.0000E+00  0.0000E+00  0.0000E+00
           7.9131E+03  0.0000E+00  0.0000E+00  0.0000E+00  9.0000E+01  9.0000E+01  9.0000E+01  0.0000E+00  6.2694E-02
 ------------------------------------------------------------------------------------------------------------------------
 ------------------------------------------------------------------------------------------------------------------------

     step     eng_tot    temp_tot     eng_cfg     eng_vdw     eng_cou     eng_bnd     eng_ang     eng_dih     eng_tet
 time          eng_pv    temp_rot     vir_cfg     vir_vdw     vir_cou     vir_bnd     vir_ang     vir_con     vir_tet
 cpu time      volume    temp_shl     eng_shl     vir_shl       alpha        beta       gamma     vir_pmf       press

 ------------------------------------------------------------------------------------------------------------------------
     2400 -7.8846E+03  2.9847E+02 -1.0787E+04  2.5877E+03 -1.5360E+04  1.2430E+03  7.4151E+02  0.0000E+00  0.0000E+00
   1.200p -9.3400E+03  0.0000E+00  1.0548E+04 -5.6461E+04  1.6177E+04  5.0831E+04  0.0000E+00  0.0000E+00  0.0000E+00
  17.151s  7.9448E+03  0.0000E+00  0.0000E+00  0.0000E+00  9.0000E+01  9.0000E+01  9.0000E+01  0.0000E+00 -3.1573E+00

  rolling -7.8846E+03  2.9573E+02 -1.0891E+04  2.5900E+03 -1.5361E+04  1.1586E+03  7.2124E+02  0.0000E+00  0.0000E+00
 averages -7.9364E+03  0.0000E+00  5.8895E+03 -5.6730E+04  1.6266E+04  4.6353E+04  0.0000E+00  0.0000E+00  0.0000E+00
           7.9063E+03  0.0000E+00  0.0000E+00  0.0000E+00  9.0000E+01  9.0000E+01  9.0000E+01  0.0000E+00  1.3791E-02
 ------------------------------------------------------------------------------------------------------------------------
     2500 -7.8837E+03  3.0525E+02 -1.0843E+04  2.7021E+03 -1.5426E+04  1.1382E+03  7.4277E+02  0.0000E+00  0.0000E+00
   1.250p -6.4768E+03  0.0000E+00  2.1283E+03 -5.8173E+04  1.6182E+04  4.4119E+04  0.0000E+00  0.0000E+00  0.0000E+00
  17.831s  7.8830E+03  0.0000E+00  0.0000E+00  0.0000E+00  9.0000E+01  9.0000E+01  9.0000E+01  0.0000E+00  2.7462E+00

  rolling -7.8846E+03  2.9666E+02 -1.0893E+04  2.5863E+03 -1.5357E+04  1.1587E+03  7.1982E+02  0.0000E+00  0.0000E+00
 averages -7.9332E+03  0.0000E+00  5.9209E+03 -5.6673E+04  1.6260E+04  4.6335E+04  0.0000E+00  0.0000E+00  0.0000E+00
           7.9004E+03  0.0000E+00  0.0000E+00  0.0000E+00  9.0000E+01  9.0000E+01  9.0000E+01  0.0000E+00  3.9878E-03
 ------------------------------------------------------------------------------------------------------------------------
     2600 -7.8849E+03  3.0460E+02 -1.0847E+04  2.5572E+03 -1.5351E+04  1.1523E+03  7.9358E+02  0.0000E+00  0.0000E+00
   1.300p -7.7713E+03  0.0000E+00  5.9671E+03 -5.6255E+04  1.6189E+04  4.6033E+04  0.0000E+00  0.0000E+00  0.0000E+00
  18.508s  7.8925E+03  0.0000E+00  0.0000E+00  0.0000E+00  9.0000E+01  9.0000E+01  9.0000E+01  0.0000E+00  7.6929E-02

  rolling -7.8845E+03  2.9699E+02 -1.0882E+04  2.5792E+03 -1.5338E+04  1.1602E+03  7.1689E+02  0.0000E+00  0.0000E+00
 averages -7.9338E+03  0.0000E+00  5.9726E+03 -5.6578E+04  1.6221E+04  4.6329E+04  0.0000E+00  0.0000E+00  0.0000E+00
           7.8967E+03  0.0000E+00  0.0000E+00  0.0000E+00  9.0000E+01  9.0000E+01  9.0000E+01  0.0000E+00 -2.7733E-02
 ------------------------------------------------------------------------------------------------------------------------
     2700 -7.8859E+03  3.0073E+02 -1.0833E+04  2.3588E+03 -1.5070E+04  1.1455E+03  7.3244E+02  0.0000E+00  0.0000E+00
   1.350p -9.8504E+03  0.0000E+00  1.2055E+04 -5.3274E+04  1.6228E+04  4.9101E+04  0.0000E+00  0.0000E+00  0.0000E+00
  19.194s  7.9913E+03  0.0000E+00  0.0000E+00  0.0000E+00  9.0000E+01  9.0000E+01  9.0000E+01  0.0000E+00 -4.1382E+00

  rolling -7.8844E+03  2.9750E+02 -1.0867E+04  2.5832E+03 -1.5325E+04  1.1632E+03  7.1137E+02  0.0000E+00  0.0000E+00
 averages -7.8963E+03  0.0000E+00  5.9279E+03 -5.6638E+04  1.6227E+04  4.6339E+04  0.0000E+00  0.0000E+00  0.0000E+00
           7.8925E+03  0.0000E+00  0.0000E+00  0.0000E+00  9.0000E+01  9.0000E+01  9.0000E+01  0.0000E+00  1.0729E-02
 ------------------------------------------------------------------------------------------------------------------------
     2800 -7.8841E+03  3.0182E+02 -1.0849E+04  2.6752E+03 -1.5398E+04  1.1254E+03  7.4819E+02  0.0000E+00  0.0000E+00
   1.400p -6.1527E+03  0.0000E+00  9.6749E+02 -5.8055E+04  1.6307E+04  4.2716E+04  0.0000E+00  0.0000E+00  0.0000E+00
  19.879s  7.8019E+03  0.0000E+00  0.0000E+00  0.0000E+00  9.0000E+01  9.0000E+01  9.0000E+01  0.0000E+00  3.5396E+00

  rolling -7.8843E+03  2.9821E+02 -1.0853E+04  2.5810E+03 -1.5308E+04  1.1652E+03  7.0896E+02  0.0000E+00  0.0000E+00
 averages -7.8630E+03  0.0000E+00  5.9074E+03 -5.6600E+04  1.6212E+04  4.6296E+04  0.0000E+00  0.0000E+00  0.0000E+00
           7.8907E+03  0.0000E+00  0.0000E+00  0.0000E+00  9.0000E+01  9.0000E+01  9.0000E+01  0.0000E+00  3.5625E-02
 ------------------------------------------------------------------------------------------------------------------------
     2900 -7.8826E+03  3.0791E+02 -1.0917E+04  2.7836E+03 -1.5678E+04  1.2555E+03  7.2195E+02  0.0000E+00  0.0000E+00
   1.450p -8.0008E+03  0.0000E+00  6.6123E+03 -5.9798E+04  1.6614E+04  4.9797E+04  0.0000E+00  0.0000E+00  0.0000E+00
  20.565s  7.7367E+03  0.0000E+00  0.0000E+00  0.0000E+00  9.0000E+01  9.0000E+01  9.0000E+01  0.0000E+00 -3.3052E-01

  rolling -7.8842E+03  2.9923E+02 -1.0842E+04  2.5706E+03 -1.5288E+04  1.1670E+03  7.0887E+02  0.0000E+00  0.0000E+00
 averages -7.8590E+03  0.0000E+00  5.9788E+03 -5.6460E+04  1.6171E+04  4.6268E+04  0.0000E+00  0.0000E+00  0.0000E+00
           7.8861E+03  0.0000E+00  0.0000E+00  0.0000E+00  9.0000E+01  9.0000E+01  9.0000E+01  0.0000E+00  3.3792E-04
 ------------------------------------------------------------------------------------------------------------------------
     3000 -7.8841E+03  2.9150E+02 -1.0787E+04  2.5150E+03 -1.5112E+04  1.1347E+03  6.7574E+02  0.0000E+00  0.0000E+00
   1.500p -8.2807E+03  0.0000E+00  7.0237E+03 -5.5102E+04  1.6113E+04  4.6012E+04  0.0000E+00  0.0000E+00  0.0000E+00
  21.252s  8.0430E+03  0.0000E+00  0.0000E+00  0.0000E+00  9.0000E+01  9.0000E+01  9.0000E+01  0.0000E+00 -8.1963E-01

  rolling -7.8841E+03  3.0016E+02 -1.0837E+04  2.5680E+03 -1.5281E+04  1.1675E+03  7.0836E+02  0.0000E+00  0.0000E+00
 averages -7.8341E+03  0.0000E+00  5.9664E+03 -5.6423E+04  1.6167E+04  4.6223E+04  0.0000E+00  0.0000E+00  0.0000E+00
           7.8845E+03  0.0000E+00  0.0000E+00  0.0000E+00  9.0000E+01  9.0000E+01  9.0000E+01  0.0000E+00  2.2722E-02
 ------------------------------------------------------------------------------------------------------------------------
     3100 -7.8853E+03  3.1001E+02 -1.1009E+04  2.5423E+03 -1.5315E+04  1.0730E+03  6.9004E+02  0.0000E+00  0.0000E+00
   1.550p -7.5296E+03  0.0000E+00  5.0262E+03 -5.5457E+04  1.6176E+04  4.4308E+04  0.0000E+00  0.0000E+00  0.0000E+00
  21.933s  8.0704E+03  0.0000E+00  0.0000E+00  0.0000E+00  9.0000E+01  9.0000E+01  9.0000E+01  0.0000E+00  7.8510E-01

  rolling -7.8840E+03  3.0005E+02 -1.0832E+04  2.5727E+03 -1.5281E+04  1.1681E+03  7.0847E+02  0.0000E+00  0.0000E+00
 averages -7.8291E+03  0.0000E+00  5.9612E+03 -5.6456E+04  1.6171E+04  4.6246E+04  0.0000E+00  0.0000E+00  0.0000E+00
           7.8938E+03  0.0000E+00  0.0000E+00  0.0000E+00  9.0000E+01  9.0000E+01  9.0000E+01  0.0000E+00  2.4481E-02
 ------------------------------------------------------------------------------------------------------------------------
 ------------------------------------------------------------------------------------------------------------------------

     step     eng_tot    temp_tot     eng_cfg     eng_vdw     eng_cou     eng_bnd     eng_ang     eng_dih     eng_tet
 time          eng_pv    temp_rot     vir_cfg     vir_vdw     vir_cou     vir_bnd     vir_ang     vir_con     vir_tet
 cpu time      volume    temp_shl     eng_shl     vir_shl       alpha        beta       gamma     vir_pmf       press

 ------------------------------------------------------------------------------------------------------------------------
     3200 -7.8849E+03  2.9881E+02 -1.0944E+04  2.7992E+03 -1.5690E+04  1.2263E+03  7.2083E+02  0.0000E+00  0.0000E+00
   1.600p -8.6681E+03  0.0000E+00  8.0788E+03 -5.9161E+04  1.6790E+04  5.0450E+04  0.0000E+00  0.0000E+00  0.0000E+00
  22.605s  7.9674E+03  0.0000E+00  0.0000E+00  0.0000E+00  9.0000E+01  9.0000E+01  9.0000E+01  0.0000E+00 -1.4508E+00

  rolling -7.8840E+03  2.9975E+02 -1.0835E+04  2.5860E+03 -1.5299E+04  1.1689E+03  7.0869E+02  0.0000E+00  0.0000E+00
 averages -7.8507E+03  0.0000E+00  6.0001E+03 -5.6569E+04  1.6216E+04  4.6353E+04  0.0000E+00  0.0000E+00  0.0000E+00
           7.9097E+03  0.0000E+00  0.0000E+00  0.0000E+00  9.0000E+01  9.0000E+01  9.0000E+01  0.0000E+00 -6.8992E-03
 ------------------------------------------------------------------------------------------------------------------------
     3300 -7.8854E+03  3.0361E+02 -1.1040E+04  2.8108E+03 -1.5649E+04  1.1094E+03  6.8874E+02  0.0000E+00  0.0000E+00
   1.650p -6.8798E+03  0.0000E+00  2.6669E+03 -5.9556E+04  1.6420E+04  4.5803E+04  0.0000E+00  0.0000E+00  0.0000E+00
  23.279s  7.8835E+03  0.0000E+00  0.0000E+00  0.0000E+00  9.0000E+01  9.0000E+01  9.0000E+01  0.0000E+00  2.3502E+00

  rolling -7.8841E+03  2.9919E+02 -1.0845E+04  2.5946E+03 -1.5317E+04  1.1674E+03  7.0997E+02  0.0000E+00  0.0000E+00
 averages -7.8737E+03  0.0000E+00  6.0111E+03 -5.6608E+04  1.6235E+04  4.6384E+04  0.0000E+00  0.0000E+00  0.0000E+00
           7.9270E+03  0.0000E+00  0.0000E+00  0.0000E+00  9.0000E+01  9.0000E+01  9.0000E+01  0.0000E+00 -2.1878E-02
 ------------------------------------------------------------------------------------------------------------------------
     3400 -7.8857E+03  2.8931E+02 -1.0953E+04  2.6793E+03 -1.5441E+04  1.1396E+03  6.6868E+02  0.0000E+00  0.0000E+00
   1.700p -7.9728E+03  0.0000E+00  5.4916E+03 -5.7849E+04  1.6611E+04  4.6729E+04  0.0000E+00  0.0000E+00  0.0000E+00
  23.959s  7.8848E+03  0.0000E+00  0.0000E+00  0.0000E+00  9.0000E+01  9.0000E+01  9.0000E+01  0.0000E+00  1.9507E-01

  rolling -7.8841E+03  2.9929E+02 -1.0868E+04  2.6079E+03 -1.5349E+04  1.1666E+03  7.0668E+02  0.0000E+00  0.0000E+00
 averages -7.8917E+03  0.0000E+00  6.0012E+03 -5.6783E+04  1.6286E+04  4.6498E+04  0.0000E+00  0.0000E+00  0.0000E+00
           7.9253E+03  0.0000E+00  0.0000E+00  0.0000E+00  9.0000E+01  9.0000E+01  9.0000E+01  0.0000E+00 -1.3645E-02
 ------------------------------------------------------------------------------------------------------------------------
     3500 -7.8841E+03  2.8947E+02 -1.0980E+04  2.5540E+03 -1.5437E+04  1.2068E+03  6.9627E+02  0.0000E+00  0.0000E+00
   1.750p -9.1606E+03  0.0000E+00  8.9839E+03 -5.6267E+04  1.6721E+04  4.8530E+04  0.0000E+00  0.0000E+00  0.0000E+00
  24.659s  7.8817E+03  0.0000E+00  0.0000E+00  0.0000E+00  9.0000E+01  9.0000E+01  9.0000E+01  0.0000E+00 -2.2231E+00

  rolling -7.8842E+03  2.9839E+02 -1.0887E+04  2.6148E+03 -1.5368E+04  1.1645E+03  7.0144E+02  0.0000E+00  0.0000E+00
 averages -7.9261E+03  0.0000E+00  6.0028E+03 -5.6890E+04  1.6343E+04  4.6550E+04  0.0000E+00  0.0000E+00  0.0000E+00
           7.9209E+03  0.0000E+00  0.0000E+00  0.0000E+00  9.0000E+01  9.0000E+01  9.0000E+01  0.0000E+00 -2.6979E-02
 ------------------------------------------------------------------------------------------------------------------------
     3600 -7.8850E+03  2.9375E+02 -1.1032E+04  2.4557E+03 -1.5291E+04  1.0976E+03  7.0584E+02  0.0000E+00  0.0000E+00
   1.800p -7.7936E+03  0.0000E+00  4.9398E+03 -5.5056E+04  1.6695E+04  4.3301E+04  0.0000E+00  0.0000E+00  0.0000E+00
  25.339s  7.8629E+03  0.0000E+00  0.0000E+00  0.0000E+00  9.0000E+01  9.0000E+01  9.0000E+01  0.0000E+00  6.4044E-01

  rolling -7.8843E+03  2.9738E+02 -1.0907E+04  2.6249E+03 -1.5391E+04  1.1610E+03  6.9867E+02  0.0000E+00  0.0000E+00
 averages -7.9343E+03  0.0000E+00  5.9173E+03 -5.7058E+04  1.6410E+04  4.6566E+04  0.0000E+00  0.0000E+00  0.0000E+00
           7.9122E+03  0.0000E+00  0.0000E+00  0.0000E+00  9.0000E+01  9.0000E+01  9.0000E+01  0.0000E+00  1.8069E-02
 ------------------------------------------------------------------------------------------------------------------------
     3700 -7.8844E+03  2.9119E+02 -1.0981E+04  2.4495E+03 -1.5303E+04  1.1606E+03  7.1225E+02  0.0000E+00  0.0000E+00
   1.850p -9.0191E+03  0.0000E+00  8.6422E+03 -5.5118E+04  1.6512E+04  4.7248E+04  0.0000E+00  0.0000E+00  0.0000E+00
  26.039s  7.8263E+03  0.0000E+00  0.0000E+00  0.0000E+00  9.0000E+01  9.0000E+01  9.0000E+01  0.0000E+00 -1.9764E+00

  rolling -7.8845E+03  2.9689E+02 -1.0930E+04  2.6293E+03 -1.5416E+04  1.1587E+03  6.9822E+02  0.0000E+00  0.0000E+00
 averages -7.9704E+03  0.0000E+00  5.9335E+03 -5.7164E+04  1.6453E+04  4.6645E+04  0.0000E+00  0.0000E+00  0.0000E+00
           7.9000E+03  0.0000E+00  0.0000E+00  0.0000E+00  9.0000E+01  9.0000E+01  9.0000E+01  0.0000E+00  9.3797E-04
 ------------------------------------------------------------------------------------------------------------------------
     3800 -7.8854E+03  2.9130E+02 -1.0951E+04  2.5124E+03 -1.5284E+04  1.1573E+03  6.6348E+02  0.0000E+00  0.0000E+00
   1.900p -8.7588E+03  0.0000E+00  7.9568E+03 -5.5610E+04  1.6374E+04  4.7193E+04  0.0000E+00  0.0000E+00  0.0000E+00
  26.726s  7.9152E+03  0.0000E+00  0.0000E+00  0.0000E+00  9.0000E+01  9.0000E+01  9.0000E+01  0.0000E+00 -1.4797E+00

  rolling -7.8846E+03  2.9693E+02 -1.0952E+04  2.6355E+03 -1.5440E+04  1.1567E+03  6.9588E+02  0.0000E+00  0.0000E+00
 averages -7.9853E+03  0.0000E+00  5.9119E+03 -5.7268E+04  1.6477E+04  4.6703E+04  0.0000E+00  0.0000E+00  0.0000E+00
           7.8963E+03  0.0000E+00  0.0000E+00  0.0000E+00  9.0000E+01  9.0000E+01  9.0000E+01  0.0000E+00  1.5572E-02
 ------------------------------------------------------------------------------------------------------------------------
     3900 -7.8860E+03  3.0474E+02 -1.1026E+04  2.8166E+03 -1.5599E+04  1.0648E+03  6.9179E+02  0.0000E+00  0.0000E+00
   1.950p -6.2035E+03  0.0000E+00  7.3454E+02 -6.0497E+04  1.6410E+04  4.4822E+04  0.0000E+00  0.0000E+00  0.0000E+00
  27.413s  7.6928E+03  0.0000E+00  0.0000E+00  0.0000E+00  9.0000E+01  9.0000E+01  9.0000E+01  0.0000E+00  3.7966E+00

  rolling -7.8848E+03  2.9640E+02 -1.0964E+04  2.6452E+03 -1.5458E+04  1.1562E+03  6.9173E+02  0.0000E+00  0.0000E+00
 averages -7.9946E+03  0.0000E+00  5.8770E+03 -5.7411E+04  1.6511E+04  4.6777E+04  0.0000E+00  0.0000E+00  0.0000E+00
           7.8949E+03  0.0000E+00  0.0000E+00  0.0000E+00  9.0000E+01  9.0000E+01  9.0000E+01  0.0000E+00  3.3534E-02
 ------------------------------------------------------------------------------------------------------------------------
 ------------------------------------------------------------------------------------------------------------------------

     step     eng_tot    temp_tot     eng_cfg     eng_vdw     eng_cou     eng_bnd     eng_ang     eng_dih     eng_tet
 time          eng_pv    temp_rot     vir_cfg     vir_vdw     vir_cou     vir_bnd     vir_ang     vir_con     vir_tet
 cpu time      volume    temp_shl     eng_shl     vir_shl       alpha        beta       gamma     vir_pmf       press

 ------------------------------------------------------------------------------------------------------------------------
     4000 -7.8844E+03  2.9286E+02 -1.0853E+04  2.7215E+03 -1.5501E+04  1.2107E+03  7.1623E+02  0.0000E+00  0.0000E+00
   2.000p -8.6423E+03  0.0000E+00  7.9780E+03 -5.8834E+04  1.6775E+04  5.0037E+04  0.0000E+00  0.0000E+00  0.0000E+00
  28.103s  7.7932E+03  0.0000E+00  0.0000E+00  0.0000E+00  9.0000E+01  9.0000E+01  9.0000E+01  0.0000E+00 -1.4959E+00

  rolling -7.8848E+03  2.9625E+02 -1.0972E+04  2.6417E+03 -1.5458E+04  1.1556E+03  6.8879E+02  0.0000E+00  0.0000E+00
 averages -8.0185E+03  0.0000E+00  5.9175E+03 -5.7413E+04  1.6525E+04  4.6805E+04  0.0000E+00  0.0000E+00  0.0000E+00
           7.8842E+03  0.0000E+00  0.0000E+00  0.0000E+00  9.0000E+01  9.0000E+01  9.0000E+01  0.0000E+00  2.0893E-03
 ------------------------------------------------------------------------------------------------------------------------
     4100 -7.8834E+03  2.9424E+02 -1.0798E+04  2.5903E+03 -1.5347E+04  1.1818E+03  7.7636E+02  0.0000E+00  0.0000E+00
   2.050p -7.2546E+03  0.0000E+00  4.0481E+03 -5.7097E+04  1.6354E+04  4.4792E+04  0.0000E+00  0.0000E+00  0.0000E+00
  28.801s  7.8022E+03  0.0000E+00  0.0000E+00  0.0000E+00  9.0000E+01  9.0000E+01  9.0000E+01  0.0000E+00  1.2766E+00

  rolling -7.8849E+03  2.9548E+02 -1.0965E+04  2.6261E+03 -1.5431E+04  1.1527E+03  6.8742E+02  0.0000E+00  0.0000E+00
 averages -8.0271E+03  0.0000E+00  5.9272E+03 -5.7270E+04  1.6527E+04  4.6670E+04  0.0000E+00  0.0000E+00  0.0000E+00
           7.8686E+03  0.0000E+00  0.0000E+00  0.0000E+00  9.0000E+01  9.0000E+01  9.0000E+01  0.0000E+00 -1.5292E-02
 ------------------------------------------------------------------------------------------------------------------------
     4200 -7.8848E+03  3.0848E+02 -1.0873E+04  2.4002E+03 -1.5099E+04  1.1310E+03  6.9471E+02  0.0000E+00  0.0000E+00
   2.100p -8.1516E+03  0.0000E+00  7.2240E+03 -5.3680E+04  1.6441E+04  4.4462E+04  0.0000E+00  0.0000E+00  0.0000E+00
  29.491s  8.0284E+03  0.0000E+00  0.0000E+00  0.0000E+00  9.0000E+01  9.0000E+01  9.0000E+01  0.0000E+00 -7.2694E-01

  rolling -7.8849E+03  2.9582E+02 -1.0957E+04  2.6179E+03 -1.5414E+04  1.1532E+03  6.8525E+02  0.0000E+00  0.0000E+00
 averages -8.0178E+03  0.0000E+00  5.9390E+03 -5.7216E+04  1.6516E+04  4.6639E+04  0.0000E+00  0.0000E+00  0.0000E+00
           7.8549E+03  0.0000E+00  0.0000E+00  0.0000E+00  9.0000E+01  9.0000E+01  9.0000E+01  0.0000E+00 -1.8004E-02
 ------------------------------------------------------------------------------------------------------------------------
     4300 -7.8838E+03  3.0007E+02 -1.0758E+04  2.4764E+03 -1.5233E+04  1.2492E+03  7.4994E+02  0.0000E+00  0.0000E+00
   2.150p -9.3953E+03  0.0000E+00  1.0882E+04 -5.4522E+04  1.6609E+04  4.8796E+04  0.0000E+00  0.0000E+00  0.0000E+00
  30.168s  8.0780E+03  0.0000E+00  0.0000E+00  0.0000E+00  9.0000E+01  9.0000E+01  9.0000E+01  0.0000E+00 -3.3099E+00

  rolling -7.8849E+03  2.9695E+02 -1.0947E+04  2.6232E+03 -1.5411E+04  1.1563E+03  6.8386E+02  0.0000E+00  0.0000E+00
 averages -7.9680E+03  0.0000E+00  5.8758E+03 -5.7292E+04  1.6530E+04  4.6638E+04  0.0000E+00  0.0000E+00  0.0000E+00
           7.8528E+03  0.0000E+00  0.0000E+00  0.0000E+00  9.0000E+01  9.0000E+01  9.0000E+01  0.0000E+00  4.0875E-02
 ------------------------------------------------------------------------------------------------------------------------
     4400 -7.8825E+03  3.0700E+02 -1.0842E+04  2.7187E+03 -1.5374E+04  1.1638E+03  6.4974E+02  0.0000E+00  0.0000E+00
   2.200p -6.3159E+03  0.0000E+00  1.7377E+03 -5.8267E+04  1.6241E+04  4.3764E+04  0.0000E+00  0.0000E+00  0.0000E+00
  30.840s  7.9590E+03  0.0000E+00  0.0000E+00  0.0000E+00  9.0000E+01  9.0000E+01  9.0000E+01  0.0000E+00  3.0120E+00

  rolling -7.8849E+03  2.9791E+02 -1.0930E+04  2.6188E+03 -1.5392E+04  1.1585E+03  6.8459E+02  0.0000E+00  0.0000E+00
 averages -7.9387E+03  0.0000E+00  5.8876E+03 -5.7202E+04  1.6527E+04  4.6563E+04  0.0000E+00  0.0000E+00  0.0000E+00
           7.8639E+03  0.0000E+00  0.0000E+00  0.0000E+00  9.0000E+01  9.0000E+01  9.0000E+01  0.0000E+00  4.6476E-02
 ------------------------------------------------------------------------------------------------------------------------
     4500 -7.8831E+03  2.9002E+02 -1.0725E+04  2.5977E+03 -1.5221E+04  1.2133E+03  6.8506E+02  0.0000E+00  0.0000E+00
   2.250p -8.3008E+03  0.0000E+00  7.1948E+03 -5.6454E+04  1.6204E+04  4.7445E+04  0.0000E+00  0.0000E+00  0.0000E+00
  31.511s  8.0156E+03  0.0000E+00  0.0000E+00  0.0000E+00  9.0000E+01  9.0000E+01  9.0000E+01  0.0000E+00 -9.5925E-01

  rolling -7.8848E+03  2.9831E+02 -1.0907E+04  2.6051E+03 -1.5359E+04  1.1600E+03  6.8711E+02  0.0000E+00  0.0000E+00
 averages -7.9327E+03  0.0000E+00  5.9593E+03 -5.6970E+04  1.6463E+04  4.6467E+04  0.0000E+00  0.0000E+00  0.0000E+00
           7.8822E+03  0.0000E+00  0.0000E+00  0.0000E+00  9.0000E+01  9.0000E+01  9.0000E+01  0.0000E+00  2.8988E-03
 ------------------------------------------------------------------------------------------------------------------------
     4600 -7.8839E+03  3.0019E+02 -1.0874E+04  2.6058E+03 -1.5361E+04  1.1819E+03  6.9880E+02  0.0000E+00  0.0000E+00
   2.300p -8.1611E+03  0.0000E+00  6.8355E+03 -5.6756E+04  1.6494E+04  4.7097E+04  0.0000E+00  0.0000E+00  0.0000E+00
  32.189s  7.9384E+03  0.0000E+00  0.0000E+00  0.0000E+00  9.0000E+01  9.0000E+01  9.0000E+01  0.0000E+00 -5.8173E-01

  rolling -7.8847E+03  2.9927E+02 -1.0892E+04  2.6045E+03 -1.5349E+04  1.1626E+03  6.9020E+02  0.0000E+00  0.0000E+00
 averages -7.8899E+03  0.0000E+00  5.9232E+03 -5.6938E+04  1.6428E+04  4.6433E+04  0.0000E+00  0.0000E+00  0.0000E+00
           7.8906E+03  0.0000E+00  0.0000E+00  0.0000E+00  9.0000E+01  9.0000E+01  9.0000E+01  0.0000E+00  4.0689E-02
 ------------------------------------------------------------------------------------------------------------------------
     4700 -7.8838E+03  3.0524E+02 -1.0969E+04  2.7334E+03 -1.5685E+04  1.1577E+03  8.2518E+02  0.0000E+00  0.0000E+00
   2.350p -6.7773E+03  0.0000E+00  2.6530E+03 -5.8741E+04  1.6530E+04  4.4864E+04  0.0000E+00  0.0000E+00  0.0000E+00
  32.870s  7.8424E+03  0.0000E+00  0.0000E+00  0.0000E+00  9.0000E+01  9.0000E+01  9.0000E+01  0.0000E+00  2.3948E+00

  rolling -7.8846E+03  2.9963E+02 -1.0877E+04  2.5962E+03 -1.5330E+04  1.1636E+03  6.9348E+02  0.0000E+00  0.0000E+00
 averages -7.8989E+03  0.0000E+00  6.0148E+03 -5.6756E+04  1.6411E+04  4.6360E+04  0.0000E+00  0.0000E+00  0.0000E+00
           7.9087E+03  0.0000E+00  0.0000E+00  0.0000E+00  9.0000E+01  9.0000E+01  9.0000E+01  0.0000E+00 -1.8944E-02
 ------------------------------------------------------------------------------------------------------------------------
 ------------------------------------------------------------------------------------------------------------------------

     step     eng_tot    temp_tot     eng_cfg     eng_vdw     eng_cou     eng_bnd     eng_ang     eng_dih     eng_tet
 time          eng_pv    temp_rot     vir_cfg     vir_vdw     vir_cou     vir_bnd     vir_ang     vir_con     vir_tet
 cpu time      volume    temp_shl     eng_shl     vir_shl       alpha        beta       gamma     vir_pmf       press

 ------------------------------------------------------------------------------------------------------------------------
     4800 -7.8846E+03  2.9229E+02 -1.0902E+04  2.5325E+03 -1.5439E+04  1.2502E+03  7.5516E+02  0.0000E+00  0.0000E+00
   2.400p -9.6118E+03  0.0000E+00  1.0712E+04 -5.5524E+04  1.6285E+04  4.9951E+04  0.0000E+00  0.0000E+00  0.0000E+00
  33.550s  7.9965E+03  0.0000E+00  0.0000E+00  0.0000E+00  9.0000E+01  9.0000E+01  9.0000E+01  0.0000E+00 -3.3334E+00

  rolling -7.8845E+03  3.0005E+02 -1.0870E+04  2.5941E+03 -1.5329E+04  1.1646E+03  6.9991E+02  0.0000E+00  0.0000E+00
 averages -7.9003E+03  0.0000E+00  6.0591E+03 -5.6689E+04  1.6412E+04  4.6337E+04  0.0000E+00  0.0000E+00  0.0000E+00
           7.9187E+03  0.0000E+00  0.0000E+00  0.0000E+00  9.0000E+01  9.0000E+01  9.0000E+01  0.0000E+00 -4.2975E-02
 ------------------------------------------------------------------------------------------------------------------------
     4900 -7.8855E+03  3.0195E+02 -1.1052E+04  2.6538E+03 -1.5488E+04  1.1060E+03  6.7582E+02  0.0000E+00  0.0000E+00
   2.450p -7.5773E+03  0.0000E+00  4.6396E+03 -5.7189E+04  1.6808E+04  4.5021E+04  0.0000E+00  0.0000E+00  0.0000E+00
  34.228s  7.9871E+03  0.0000E+00  0.0000E+00  0.0000E+00  9.0000E+01  9.0000E+01  9.0000E+01  0.0000E+00  9.4782E-01

  rolling -7.8845E+03  3.0037E+02 -1.0873E+04  2.6043E+03 -1.5347E+04  1.1649E+03  7.0524E+02  0.0000E+00  0.0000E+00
 averages -7.8801E+03  0.0000E+00  6.0062E+03 -5.6773E+04  1.6431E+04  4.6348E+04  0.0000E+00  0.0000E+00  0.0000E+00
           7.9312E+03  0.0000E+00  0.0000E+00  0.0000E+00  9.0000E+01  9.0000E+01  9.0000E+01  0.0000E+00 -3.4672E-03
 ------------------------------------------------------------------------------------------------------------------------
     5000 -7.8845E+03  2.9336E+02 -1.1029E+04  2.7679E+03 -1.5703E+04  1.2223E+03  6.8393E+02  0.0000E+00  0.0000E+00
   2.500p -8.0766E+03  0.0000E+00  5.7779E+03 -5.9060E+04  1.6611E+04  4.8228E+04  0.0000E+00  0.0000E+00  0.0000E+00
  34.907s  7.9090E+03  0.0000E+00  0.0000E+00  0.0000E+00  9.0000E+01  9.0000E+01  9.0000E+01  0.0000E+00  5.2443E-02

  rolling -7.8845E+03  3.0053E+02 -1.0886E+04  2.6207E+03 -1.5383E+04  1.1660E+03  7.1034E+02  0.0000E+00  0.0000E+00
 averages -7.8815E+03  0.0000E+00  5.9799E+03 -5.6937E+04  1.6467E+04  4.6450E+04  0.0000E+00  0.0000E+00  0.0000E+00
           7.9448E+03  0.0000E+00  0.0000E+00  0.0000E+00  9.0000E+01  9.0000E+01  9.0000E+01  0.0000E+00  1.6770E-02
 ------------------------------------------------------------------------------------------------------------------------
     5100 -7.8843E+03  2.8056E+02 -1.0966E+04  2.6605E+03 -1.5537E+04  1.1680E+03  7.4231E+02  0.0000E+00  0.0000E+00
   2.550p -8.6102E+03  0.0000E+00  6.9281E+03 -5.7233E+04  1.6700E+04  4.7462E+04  0.0000E+00  0.0000E+00  0.0000E+00
  35.595s  8.0309E+03  0.0000E+00  0.0000E+00  0.0000E+00  9.0000E+01  9.0000E+01  9.0000E+01  0.0000E+00 -9.0437E-01

  rolling -7.8846E+03  3.0057E+02 -1.0910E+04  2.6353E+03 -1.5423E+04  1.1654E+03  7.1185E+02  0.0000E+00  0.0000E+00
 averages -7.9040E+03  0.0000E+00  5.9767E+03 -5.7078E+04  1.6492E+04  4.6563E+04  0.0000E+00  0.0000E+00  0.0000E+00
           7.9601E+03  0.0000E+00  0.0000E+00  0.0000E+00  9.0000E+01  9.0000E+01  9.0000E+01  0.0000E+00  1.9350E-02
 ------------------------------------------------------------------------------------------------------------------------
     5200 -7.8857E+03  2.9088E+02 -1.1093E+04  2.7790E+03 -1.5712E+04  1.1454E+03  6.9480E+02  0.0000E+00  0.0000E+00
   2.600p -7.4227E+03  0.0000E+00  3.5006E+03 -5.9110E+04  1.6850E+04  4.5760E+04  0.0000E+00  0.0000E+00  0.0000E+00
  36.271s  7.9626E+03  0.0000E+00  0.0000E+00  0.0000E+00  9.0000E+01  9.0000E+01  9.0000E+01  0.0000E+00  1.5805E+00

  rolling -7.8847E+03  2.9927E+02 -1.0932E+04  2.6468E+03 -1.5457E+04  1.1629E+03  7.1506E+02  0.0000E+00  0.0000E+00
 averages -7.9377E+03  0.0000E+00  5.9456E+03 -5.7201E+04  1.6534E+04  4.6612E+04  0.0000E+00  0.0000E+00  0.0000E+00
           7.9705E+03  0.0000E+00  0.0000E+00  0.0000E+00  9.0000E+01  9.0000E+01  9.0000E+01  0.0000E+00  2.1837E-02
 ------------------------------------------------------------------------------------------------------------------------
     5300 -7.8852E+03  2.8412E+02 -1.0997E+04  2.6965E+03 -1.5541E+04  1.1647E+03  6.8273E+02  0.0000E+00  0.0000E+00
   2.650p -8.7923E+03  0.0000E+00  7.5601E+03 -5.7911E+04  1.6971E+04  4.8500E+04  0.0000E+00  0.0000E+00  0.0000E+00
  36.944s  8.0002E+03  0.0000E+00  0.0000E+00  0.0000E+00  9.0000E+01  9.0000E+01  9.0000E+01  0.0000E+00 -1.2909E+00

  rolling -7.8849E+03  2.9694E+02 -1.0950E+04  2.6474E+03 -1.5471E+04  1.1586E+03  7.1551E+02  0.0000E+00  0.0000E+00
 averages -8.0062E+03  0.0000E+00  5.9828E+03 -5.7217E+04  1.6557E+04  4.6643E+04  0.0000E+00  0.0000E+00  0.0000E+00
           7.9752E+03  0.0000E+00  0.0000E+00  0.0000E+00  9.0000E+01  9.0000E+01  9.0000E+01  0.0000E+00 -3.5978E-02
 ------------------------------------------------------------------------------------------------------------------------
     5400 -7.8859E+03  2.9053E+02 -1.0978E+04  2.6116E+03 -1.5348E+04  1.1581E+03  6.0048E+02  0.0000E+00  0.0000E+00
   2.700p -8.1397E+03  0.0000E+00  5.9777E+03 -5.6793E+04  1.6658E+04  4.6113E+04  0.0000E+00  0.0000E+00  0.0000E+00
  37.618s  7.9888E+03  0.0000E+00  0.0000E+00  0.0000E+00  9.0000E+01  9.0000E+01  9.0000E+01  0.0000E+00 -1.2326E-01

  rolling -7.8851E+03  2.9499E+02 -1.0966E+04  2.6616E+03 -1.5498E+04  1.1562E+03  7.1389E+02  0.0000E+00  0.0000E+00
 averages -8.0251E+03  0.0000E+00  5.8936E+03 -5.7440E+04  1.6614E+04  4.6720E+04  0.0000E+00  0.0000E+00  0.0000E+00
           7.9693E+03  0.0000E+00  0.0000E+00  0.0000E+00  9.0000E+01  9.0000E+01  9.0000E+01  0.0000E+00 -2.2426E-03
 ------------------------------------------------------------------------------------------------------------------------
     5500 -7.8851E+03  2.9421E+02 -1.0906E+04  2.6911E+03 -1.5401E+04  1.1395E+03  6.6474E+02  0.0000E+00  0.0000E+00
   2.750p -7.5626E+03  0.0000E+00  4.6477E+03 -5.7812E+04  1.6904E+04  4.5556E+04  0.0000E+00  0.0000E+00  0.0000E+00
  38.296s  7.9811E+03  0.0000E+00  0.0000E+00  0.0000E+00  9.0000E+01  9.0000E+01  9.0000E+01  0.0000E+00  8.3720E-01

  rolling -7.8852E+03  2.9493E+02 -1.0987E+04  2.6791E+03 -1.5534E+04  1.1567E+03  7.1122E+02  0.0000E+00  0.0000E+00
 averages -8.0276E+03  0.0000E+00  5.8346E+03 -5.7708E+04  1.6687E+04  4.6856E+04  0.0000E+00  0.0000E+00  0.0000E+00
           7.9594E+03  0.0000E+00  0.0000E+00  0.0000E+00  9.0000E+01  9.0000E+01  9.0000E+01  0.0000E+00  3.7225E-02
 ------------------------------------------------------------------------------------------------------------------------
 ------------------------------------------------------------------------------------------------------------------------

     step     eng_tot    temp_tot     eng_cfg     eng_vdw     eng_cou     eng_bnd     eng_ang     eng_dih     eng_tet
 time          eng_pv    temp_rot     vir_cfg     vir_vdw     vir_cou     vir_bnd     vir_ang     vir_con     vir_tet
 cpu time      volume    temp_shl     eng_shl     vir_shl       alpha        beta       gamma     vir_pmf       press

 ------------------------------------------------------------------------------------------------------------------------
     5600 -7.8838E+03  3.0189E+02 -1.0869E+04  2.7091E+03 -1.5543E+04  1.2851E+03  6.7958E+02  0.0000E+00  0.0000E+00
   2.800p -8.8001E+03  0.0000E+00  8.8529E+03 -5.7946E+04  1.6734E+04  5.0065E+04  0.0000E+00  0.0000E+00  0.0000E+00
  38.969s  8.0007E+03  0.0000E+00  0.0000E+00  0.0000E+00  9.0000E+01  9.0000E+01  9.0000E+01  0.0000E+00 -1.9314E+00

  rolling -7.8853E+03  2.9492E+02 -1.0993E+04  2.6823E+03 -1.5540E+04  1.1574E+03  7.0781E+02  0.0000E+00  0.0000E+00
 averages -8.0537E+03  0.0000E+00  5.8952E+03 -5.7723E+04  1.6723E+04  4.6895E+04  0.0000E+00  0.0000E+00  0.0000E+00
           7.9668E+03  0.0000E+00  0.0000E+00  0.0000E+00  9.0000E+01  9.0000E+01  9.0000E+01  0.0000E+00 -4.4467E-03
 ------------------------------------------------------------------------------------------------------------------------
     5700 -7.8823E+03  3.0055E+02 -1.0774E+04  2.7576E+03 -1.5482E+04  1.2207E+03  7.2988E+02  0.0000E+00  0.0000E+00
   2.850p -6.6212E+03  0.0000E+00  2.5344E+03 -5.8645E+04  1.6503E+04  4.4676E+04  0.0000E+00  0.0000E+00  0.0000E+00
  39.643s  7.9907E+03  0.0000E+00  0.0000E+00  0.0000E+00  9.0000E+01  9.0000E+01  9.0000E+01  0.0000E+00  2.3675E+00

  rolling -7.8854E+03  2.9608E+02 -1.0996E+04  2.6893E+03 -1.5547E+04  1.1600E+03  7.0252E+02  0.0000E+00  0.0000E+00
 averages -8.0298E+03  0.0000E+00  5.8732E+03 -5.7795E+04  1.6730E+04  4.6939E+04  0.0000E+00  0.0000E+00  0.0000E+00
           7.9757E+03  0.0000E+00  0.0000E+00  0.0000E+00  9.0000E+01  9.0000E+01  9.0000E+01  0.0000E+00  2.6666E-02
 ------------------------------------------------------------------------------------------------------------------------
     5800 -7.8830E+03  3.0675E+02 -1.0834E+04  2.7587E+03 -1.5511E+04  1.2617E+03  6.5727E+02  0.0000E+00  0.0000E+00
   2.900p -7.7542E+03  0.0000E+00  6.0643E+03 -5.8916E+04  1.6112E+04  4.8869E+04  0.0000E+00  0.0000E+00  0.0000E+00
  40.321s  7.9343E+03  0.0000E+00  0.0000E+00  0.0000E+00  9.0000E+01  9.0000E+01  9.0000E+01  0.0000E+00  3.9177E-02

  rolling -7.8854E+03  2.9769E+02 -1.0993E+04  2.6882E+03 -1.5543E+04  1.1634E+03  6.9820E+02  0.0000E+00  0.0000E+00
 averages -8.0176E+03  0.0000E+00  5.9244E+03 -5.7771E+04  1.6704E+04  4.6992E+04  0.0000E+00  0.0000E+00  0.0000E+00
           7.9829E+03  0.0000E+00  0.0000E+00  0.0000E+00  9.0000E+01  9.0000E+01  9.0000E+01  0.0000E+00  1.2764E-02
 ------------------------------------------------------------------------------------------------------------------------
     5900 -7.8848E+03  2.8691E+02 -1.0687E+04  2.5973E+03 -1.5162E+04  1.1175E+03  7.5972E+02  0.0000E+00  0.0000E+00
   2.950p -7.4832E+03  0.0000E+00  4.7004E+03 -5.6375E+04  1.5952E+04  4.5123E+04  0.0000E+00  0.0000E+00  0.0000E+00
  40.996s  8.0307E+03  0.0000E+00  0.0000E+00  0.0000E+00  9.0000E+01  9.0000E+01  9.0000E+01  0.0000E+00  6.9711E-01

  rolling -7.8853E+03  2.9779E+02 -1.0973E+04  2.6779E+03 -1.5513E+04  1.1655E+03  6.9676E+02  0.0000E+00  0.0000E+00
 averages -8.0096E+03  0.0000E+00  5.9660E+03 -5.7623E+04  1.6646E+04  4.6942E+04  0.0000E+00  0.0000E+00  0.0000E+00
           7.9905E+03  0.0000E+00  0.0000E+00  0.0000E+00  9.0000E+01  9.0000E+01  9.0000E+01  0.0000E+00 -1.4098E-02
 ------------------------------------------------------------------------------------------------------------------------
     6000 -7.8846E+03  3.0106E+02 -1.0868E+04  2.6682E+03 -1.5400E+04  1.1683E+03  6.9544E+02  0.0000E+00  0.0000E+00
   3.000p -7.4397E+03  0.0000E+00  4.7328E+03 -5.7552E+04  1.6514E+04  4.5771E+04  0.0000E+00  0.0000E+00  0.0000E+00
  41.671s  7.9349E+03  0.0000E+00  0.0000E+00  0.0000E+00  9.0000E+01  9.0000E+01  9.0000E+01  0.0000E+00  8.7758E-01

  rolling -7.8852E+03  2.9736E+02 -1.0946E+04  2.6684E+03 -1.5481E+04  1.1671E+03  6.9917E+02  0.0000E+00  0.0000E+00
 averages -7.9864E+03  0.0000E+00  5.9553E+03 -5.7486E+04  1.6588E+04  4.6854E+04  0.0000E+00  0.0000E+00  0.0000E+00
           7.9938E+03  0.0000E+00  0.0000E+00  0.0000E+00  9.0000E+01  9.0000E+01  9.0000E+01  0.0000E+00 -1.2851E-02
 ------------------------------------------------------------------------------------------------------------------------
     6100 -7.8835E+03  3.0086E+02 -1.0901E+04  2.4972E+03 -1.5314E+04  1.2249E+03  6.9149E+02  0.0000E+00  0.0000E+00
   3.050p -8.7267E+03  0.0000E+00  8.4870E+03 -5.5386E+04  1.6157E+04  4.7716E+04  0.0000E+00  0.0000E+00  0.0000E+00
  42.357s  7.9310E+03  0.0000E+00  0.0000E+00  0.0000E+00  9.0000E+01  9.0000E+01  9.0000E+01  0.0000E+00 -1.7105E+00

  rolling -7.8851E+03  2.9785E+02 -1.0925E+04  2.6611E+03 -1.5459E+04  1.1697E+03  7.0283E+02  0.0000E+00  0.0000E+00
 averages -7.9612E+03  0.0000E+00  5.9665E+03 -5.7396E+04  1.6559E+04  4.6804E+04  0.0000E+00  0.0000E+00  0.0000E+00
           7.9890E+03  0.0000E+00  0.0000E+00  0.0000E+00  9.0000E+01  9.0000E+01  9.0000E+01  0.0000E+00 -1.3808E-02
 ------------------------------------------------------------------------------------------------------------------------
     6200 -7.8845E+03  2.9011E+02 -1.0839E+04  2.5108E+03 -1.5196E+04  1.1231E+03  7.2299E+02  0.0000E+00  0.0000E+00
   3.100p -7.6886E+03  0.0000E+00  5.0221E+03 -5.5836E+04  1.6161E+04  4.4697E+04  0.0000E+00  0.0000E+00  0.0000E+00
  43.042s  7.8686E+03  0.0000E+00  0.0000E+00  0.0000E+00  9.0000E+01  9.0000E+01  9.0000E+01  0.0000E+00  5.3246E-01

  rolling -7.8850E+03  2.9885E+02 -1.0909E+04  2.6522E+03 -1.5441E+04  1.1719E+03  7.0728E+02  0.0000E+00  0.0000E+00
 averages -7.9226E+03  0.0000E+00  5.9492E+03 -5.7327E+04  1.6519E+04  4.6757E+04  0.0000E+00  0.0000E+00  0.0000E+00
           7.9751E+03  0.0000E+00  0.0000E+00  0.0000E+00  9.0000E+01  9.0000E+01  9.0000E+01  0.0000E+00  1.2105E-02
 ------------------------------------------------------------------------------------------------------------------------
     6300 -7.8851E+03  3.0544E+02 -1.1037E+04  2.7559E+03 -1.5686E+04  1.1629E+03  7.3011E+02  0.0000E+00  0.0000E+00
   3.150p -7.4426E+03  0.0000E+00  4.4542E+03 -5.9500E+04  1.6547E+04  4.7407E+04  0.0000E+00  0.0000E+00  0.0000E+00
  43.736s  7.7291E+03  0.0000E+00  0.0000E+00  0.0000E+00  9.0000E+01  9.0000E+01  9.0000E+01  0.0000E+00  1.1596E+00

  rolling -7.8848E+03  3.0027E+02 -1.0902E+04  2.6415E+03 -1.5426E+04  1.1732E+03  7.0979E+02  0.0000E+00  0.0000E+00
 averages -7.8913E+03  0.0000E+00  5.9480E+03 -5.7245E+04  1.6482E+04  4.6711E+04  0.0000E+00  0.0000E+00  0.0000E+00
           7.9546E+03  0.0000E+00  0.0000E+00  0.0000E+00  9.0000E+01  9.0000E+01  9.0000E+01  0.0000E+00  3.2979E-02
 ------------------------------------------------------------------------------------------------------------------------
 ------------------------------------------------------------------------------------------------------------------------

     step     eng_tot    temp_tot     eng_cfg     eng_vdw     eng_cou     eng_bnd     eng_ang     eng_dih     eng_tet
 time          eng_pv    temp_rot     vir_cfg     vir_vdw     vir_cou     vir_bnd     vir_ang     vir_con     vir_tet
 cpu time      volume    temp_shl     eng_shl     vir_shl       alpha        beta       gamma     vir_pmf       press

 ------------------------------------------------------------------------------------------------------------------------
     6400 -7.8858E+03  2.9812E+02 -1.1018E+04  2.6495E+03 -1.5501E+04  1.1043E+03  7.2971E+02  0.0000E+00  0.0000E+00
   3.200p -8.0496E+03  0.0000E+00  5.9682E+03 -5.7784E+04  1.6595E+04  4.7157E+04  0.0000E+00  0.0000E+00  0.0000E+00
  44.424s  7.8211E+03  0.0000E+00  0.0000E+00  0.0000E+00  9.0000E+01  9.0000E+01  9.0000E+01  0.0000E+00 -1.3418E-02

  rolling -7.8847E+03  3.0102E+02 -1.0899E+04  2.6215E+03 -1.5405E+04  1.1725E+03  7.1208E+02  0.0000E+00  0.0000E+00
 averages -7.9013E+03  0.0000E+00  6.0251E+03 -5.7016E+04  1.6413E+04  4.6629E+04  0.0000E+00  0.0000E+00  0.0000E+00
           7.9404E+03  0.0000E+00  0.0000E+00  0.0000E+00  9.0000E+01  9.0000E+01  9.0000E+01  0.0000E+00 -9.8812E-03
 ------------------------------------------------------------------------------------------------------------------------
     6500 -7.8857E+03  2.9605E+02 -1.1031E+04  2.5668E+03 -1.5443E+04  1.1182E+03  7.2738E+02  0.0000E+00  0.0000E+00
   3.250p -8.2141E+03  0.0000E+00  6.3179E+03 -5.6654E+04  1.6502E+04  4.6470E+04  0.0000E+00  0.0000E+00  0.0000E+00
  45.116s  7.8533E+03  0.0000E+00  0.0000E+00  0.0000E+00  9.0000E+01  9.0000E+01  9.0000E+01  0.0000E+00 -2.8541E-01

  rolling -7.8846E+03  3.0092E+02 -1.0901E+04  2.6120E+03 -1.5399E+04  1.1702E+03  7.1614E+02  0.0000E+00  0.0000E+00
 averages -7.9093E+03  0.0000E+00  6.0365E+03 -5.6926E+04  1.6381E+04  4.6582E+04  0.0000E+00  0.0000E+00  0.0000E+00
           7.9294E+03  0.0000E+00  0.0000E+00  0.0000E+00  9.0000E+01  9.0000E+01  9.0000E+01  0.0000E+00 -1.9117E-02
 ------------------------------------------------------------------------------------------------------------------------
     6600 -7.8863E+03  2.8840E+02 -1.0971E+04  2.5596E+03 -1.5347E+04  1.0845E+03  7.3246E+02  0.0000E+00  0.0000E+00
   3.300p -8.0046E+03  0.0000E+00  5.4887E+03 -5.6565E+04  1.6344E+04  4.5710E+04  0.0000E+00  0.0000E+00  0.0000E+00
  45.803s  7.8367E+03  0.0000E+00  0.0000E+00  0.0000E+00  9.0000E+01  9.0000E+01  9.0000E+01  0.0000E+00  1.8559E-01

  rolling -7.8846E+03  3.0018E+02 -1.0911E+04  2.6098E+03 -1.5406E+04  1.1674E+03  7.1779E+02  0.0000E+00  0.0000E+00
 averages -7.9180E+03  0.0000E+00  5.9960E+03 -5.6970E+04  1.6360E+04  4.6606E+04  0.0000E+00  0.0000E+00  0.0000E+00
           7.9103E+03  0.0000E+00  0.0000E+00  0.0000E+00  9.0000E+01  9.0000E+01  9.0000E+01  0.0000E+00 -1.4559E-03
 ------------------------------------------------------------------------------------------------------------------------
     6700 -7.8874E+03  3.0394E+02 -1.1117E+04  2.7411E+03 -1.5645E+04  1.0805E+03  7.0626E+02  0.0000E+00  0.0000E+00
   3.350p -7.9289E+03  0.0000E+00  5.5977E+03 -5.9003E+04  1.6737E+04  4.7863E+04  0.0000E+00  0.0000E+00  0.0000E+00
  46.498s  7.7692E+03  0.0000E+00  0.0000E+00  0.0000E+00  9.0000E+01  9.0000E+01  9.0000E+01  0.0000E+00  3.2852E-01

  rolling -7.8846E+03  2.9876E+02 -1.0924E+04  2.6085E+03 -1.5416E+04  1.1636E+03  7.1932E+02  0.0000E+00  0.0000E+00
 averages -7.9404E+03  0.0000E+00  5.9524E+03 -5.7025E+04  1.6354E+04  4.6624E+04  0.0000E+00  0.0000E+00  0.0000E+00
           7.8877E+03  0.0000E+00  0.0000E+00  0.0000E+00  9.0000E+01  9.0000E+01  9.0000E+01  0.0000E+00  9.3167E-03
 ------------------------------------------------------------------------------------------------------------------------
     6800 -7.8860E+03  3.0124E+02 -1.1065E+04  2.7819E+03 -1.5663E+04  1.1086E+03  7.0764E+02  0.0000E+00  0.0000E+00
   3.400p -7.4386E+03  0.0000E+00  4.1497E+03 -5.9401E+04  1.6570E+04  4.6981E+04  0.0000E+00  0.0000E+00  0.0000E+00
  47.184s  7.8048E+03  0.0000E+00  0.0000E+00  0.0000E+00  9.0000E+01  9.0000E+01  9.0000E+01  0.0000E+00  1.3030E+00

  rolling -7.8846E+03  2.9657E+02 -1.0933E+04  2.6100E+03 -1.5420E+04  1.1591E+03  7.1796E+02  0.0000E+00  0.0000E+00
 averages -7.9681E+03  0.0000E+00  5.9006E+03 -5.7075E+04  1.6389E+04  4.6587E+04  0.0000E+00  0.0000E+00  0.0000E+00
           7.8703E+03  0.0000E+00  0.0000E+00  0.0000E+00  9.0000E+01  9.0000E+01  9.0000E+01  0.0000E+00  1.4650E-02
 ------------------------------------------------------------------------------------------------------------------------
     6900 -7.8861E+03  2.9036E+02 -1.0923E+04  2.5050E+03 -1.5225E+04  1.1083E+03  6.8903E+02  0.0000E+00  0.0000E+00
   3.450p -8.2451E+03  0.0000E+00  6.4522E+03 -5.5038E+04  1.6059E+04  4.5431E+04  0.0000E+00  0.0000E+00  0.0000E+00
  47.864s  8.0068E+03  0.0000E+00  0.0000E+00  0.0000E+00  9.0000E+01  9.0000E+01  9.0000E+01  0.0000E+00 -4.4910E-01

  rolling -7.8847E+03  2.9616E+02 -1.0953E+04  2.6168E+03 -1.5443E+04  1.1567E+03  7.1600E+02  0.0000E+00  0.0000E+00
 averages -7.9941E+03  0.0000E+00  5.8974E+03 -5.7181E+04  1.6429E+04  4.6650E+04  0.0000E+00  0.0000E+00  0.0000E+00
           7.8592E+03  0.0000E+00  0.0000E+00  0.0000E+00  9.0000E+01  9.0000E+01  9.0000E+01  0.0000E+00  1.1055E-02
 ------------------------------------------------------------------------------------------------------------------------
     7000 -7.8874E+03  3.1696E+02 -1.1162E+04  2.6678E+03 -1.5542E+04  1.0927E+03  6.1991E+02  0.0000E+00  0.0000E+00
   3.500p -8.1530E+03  0.0000E+00  6.7858E+03 -5.7618E+04  1.6496E+04  4.7908E+04  0.0000E+00  0.0000E+00  0.0000E+00
  48.548s  7.9250E+03  0.0000E+00  0.0000E+00  0.0000E+00  9.0000E+01  9.0000E+01  9.0000E+01  0.0000E+00 -3.1776E-01

  rolling -7.8848E+03  2.9714E+02 -1.0979E+04  2.6283E+03 -1.5474E+04  1.1560E+03  7.1058E+02  0.0000E+00  0.0000E+00
 averages -7.9909E+03  0.0000E+00  5.8587E+03 -5.7355E+04  1.6455E+04  4.6759E+04  0.0000E+00  0.0000E+00  0.0000E+00
           7.8501E+03  0.0000E+00  0.0000E+00  0.0000E+00  9.0000E+01  9.0000E+01  9.0000E+01  0.0000E+00  5.2260E-02
 ------------------------------------------------------------------------------------------------------------------------
     7100 -7.8867E+03  3.0565E+02 -1.1037E+04  2.8494E+03 -1.5731E+04  1.0791E+03  7.6570E+02  0.0000E+00  0.0000E+00
   3.550p -6.9526E+03  0.0000E+00  2.9959E+03 -6.0018E+04  1.6707E+04  4.6307E+04  0.0000E+00  0.0000E+00  0.0000E+00
  49.231s  7.9283E+03  0.0000E+00  0.0000E+00  0.0000E+00  9.0000E+01  9.0000E+01  9.0000E+01  0.0000E+00  2.1382E+00

  rolling -7.8848E+03  2.9719E+02 -1.0990E+04  2.6308E+03 -1.5483E+04  1.1544E+03  7.0762E+02  0.0000E+00  0.0000E+00
 averages -8.0131E+03  0.0000E+00  5.8938E+03 -5.7372E+04  1.6468E+04  4.6798E+04  0.0000E+00  0.0000E+00  0.0000E+00
           7.8550E+03  0.0000E+00  0.0000E+00  0.0000E+00  9.0000E+01  9.0000E+01  9.0000E+01  0.0000E+00  2.9416E-02
 ------------------------------------------------------------------------------------------------------------------------
 ------------------------------------------------------------------------------------------------------------------------

     step     eng_tot    temp_tot     eng_cfg     eng_vdw     eng_cou     eng_bnd     eng_ang     eng_dih     eng_tet
 time          eng_pv    temp_rot     vir_cfg     vir_vdw     vir_cou     vir_bnd     vir_ang     vir_con     vir_tet
 cpu time      volume    temp_shl     eng_shl     vir_shl       alpha        beta       gamma     vir_pmf       press

 ------------------------------------------------------------------------------------------------------------------------
     7200 -7.8847E+03  2.9467E+02 -1.0919E+04  2.8191E+03 -1.5631E+04  1.1948E+03  6.9806E+02  0.0000E+00  0.0000E+00
   3.600p -7.7000E+03  0.0000E+00  5.0430E+03 -5.9598E+04  1.6390E+04  4.8251E+04  0.0000E+00  0.0000E+00  0.0000E+00
  49.909s  7.9233E+03  0.0000E+00  0.0000E+00  0.0000E+00  9.0000E+01  9.0000E+01  9.0000E+01  0.0000E+00  5.7711E-01

  rolling -7.8849E+03  2.9696E+02 -1.0994E+04  2.6307E+03 -1.5481E+04  1.1534E+03  7.0220E+02  0.0000E+00  0.0000E+00
 averages -8.0462E+03  0.0000E+00  5.9703E+03 -5.7312E+04  1.6470E+04  4.6812E+04  0.0000E+00  0.0000E+00  0.0000E+00
           7.8697E+03  0.0000E+00  0.0000E+00  0.0000E+00  9.0000E+01  9.0000E+01  9.0000E+01  0.0000E+00 -2.6207E-02
 ------------------------------------------------------------------------------------------------------------------------
     7300 -7.8860E+03  2.9891E+02 -1.0947E+04  2.5106E+03 -1.5210E+04  1.1033E+03  6.4925E+02  0.0000E+00  0.0000E+00
   3.650p -8.2802E+03  0.0000E+00  6.9120E+03 -5.5035E+04  1.5748E+04  4.6200E+04  0.0000E+00  0.0000E+00  0.0000E+00
  50.582s  8.0716E+03  0.0000E+00  0.0000E+00  0.0000E+00  9.0000E+01  9.0000E+01  9.0000E+01  0.0000E+00 -6.4109E-01

  rolling -7.8849E+03  2.9662E+02 -1.0991E+04  2.6363E+03 -1.5476E+04  1.1528E+03  6.9586E+02  0.0000E+00  0.0000E+00
 averages -8.0420E+03  0.0000E+00  5.9490E+03 -5.7309E+04  1.6433E+04  4.6825E+04  0.0000E+00  0.0000E+00  0.0000E+00
           7.8898E+03  0.0000E+00  0.0000E+00  0.0000E+00  9.0000E+01  9.0000E+01  9.0000E+01  0.0000E+00 -1.6425E-02
 ------------------------------------------------------------------------------------------------------------------------
     7400 -7.8871E+03  3.0498E+02 -1.0987E+04  2.5406E+03 -1.5214E+04  1.0597E+03  6.2670E+02  0.0000E+00  0.0000E+00
   3.700p -7.7533E+03  0.0000E+00  5.5126E+03 -5.5400E+04  1.6088E+04  4.4825E+04  0.0000E+00  0.0000E+00  0.0000E+00
  51.253s  8.0801E+03  0.0000E+00  0.0000E+00  0.0000E+00  9.0000E+01  9.0000E+01  9.0000E+01  0.0000E+00  3.8753E-01

  rolling -7.8849E+03  2.9665E+02 -1.0985E+04  2.6493E+03 -1.5481E+04  1.1545E+03  6.9177E+02  0.0000E+00  0.0000E+00
 averages -8.0132E+03  0.0000E+00  5.8825E+03 -5.7417E+04  1.6399E+04  4.6901E+04  0.0000E+00  0.0000E+00  0.0000E+00
           7.9081E+03  0.0000E+00  0.0000E+00  0.0000E+00  9.0000E+01  9.0000E+01  9.0000E+01  0.0000E+00  3.0032E-02
 ------------------------------------------------------------------------------------------------------------------------
     7500 -7.8860E+03  3.0589E+02 -1.0973E+04  2.7545E+03 -1.5566E+04  1.1932E+03  6.4544E+02  0.0000E+00  0.0000E+00
   3.750p -8.3144E+03  0.0000E+00  7.2844E+03 -5.8560E+04  1.6564E+04  4.9280E+04  0.0000E+00  0.0000E+00  0.0000E+00
  51.929s  7.9843E+03  0.0000E+00  0.0000E+00  0.0000E+00  9.0000E+01  9.0000E+01  9.0000E+01  0.0000E+00 -8.0769E-01

  rolling -7.8849E+03  2.9725E+02 -1.0978E+04  2.6521E+03 -1.5472E+04  1.1563E+03  6.8537E+02  0.0000E+00  0.0000E+00
 averages -8.0037E+03  0.0000E+00  5.9051E+03 -5.7375E+04  1.6364E+04  4.6916E+04  0.0000E+00  0.0000E+00  0.0000E+00
           7.9277E+03  0.0000E+00  0.0000E+00  0.0000E+00  9.0000E+01  9.0000E+01  9.0000E+01  0.0000E+00  2.2853E-02
 ------------------------------------------------------------------------------------------------------------------------
     7600 -7.8843E+03  2.9677E+02 -1.0863E+04  2.8470E+03 -1.5581E+04  1.1460E+03  7.2448E+02  0.0000E+00  0.0000E+00
   3.800p -6.8162E+03  0.0000E+00  2.6637E+03 -6.0072E+04  1.6489E+04  4.6246E+04  0.0000E+00  0.0000E+00  0.0000E+00
  52.602s  7.9207E+03  0.0000E+00  0.0000E+00  0.0000E+00  9.0000E+01  9.0000E+01  9.0000E+01  0.0000E+00  2.2472E+00

  rolling -7.8849E+03  2.9760E+02 -1.0964E+04  2.6485E+03 -1.5454E+04  1.1572E+03  6.8373E+02  0.0000E+00  0.0000E+00
 averages -7.9998E+03  0.0000E+00  5.9527E+03 -5.7253E+04  1.6337E+04  4.6869E+04  0.0000E+00  0.0000E+00  0.0000E+00
           7.9469E+03  0.0000E+00  0.0000E+00  0.0000E+00  9.0000E+01  9.0000E+01  9.0000E+01  0.0000E+00 -4.6683E-03
 ------------------------------------------------------------------------------------------------------------------------
     7700 -7.8851E+03  2.8957E+02 -1.0773E+04  2.5030E+03 -1.5147E+04  1.1712E+03  6.9999E+02  0.0000E+00  0.0000E+00
   3.850p -8.4338E+03  0.0000E+00  7.4291E+03 -5.4999E+04  1.6080E+04  4.6348E+04  0.0000E+00  0.0000E+00  0.0000E+00
  53.272s  8.0809E+03  0.0000E+00  0.0000E+00  0.0000E+00  9.0000E+01  9.0000E+01  9.0000E+01  0.0000E+00 -1.1159E+00

  rolling -7.8849E+03  2.9754E+02 -1.0944E+04  2.6445E+03 -1.5431E+04  1.1581E+03  6.8399E+02  0.0000E+00  0.0000E+00
 averages -7.9948E+03  0.0000E+00  5.9945E+03 -5.7129E+04  1.6322E+04  4.6802E+04  0.0000E+00  0.0000E+00  0.0000E+00
           7.9714E+03  0.0000E+00  0.0000E+00  0.0000E+00  9.0000E+01  9.0000E+01  9.0000E+01  0.0000E+00 -3.3157E-02
 ------------------------------------------------------------------------------------------------------------------------
     7800 -7.8855E+03  2.9610E+02 -1.0800E+04  2.4886E+03 -1.5049E+04  1.0771E+03  6.8270E+02  0.0000E+00  0.0000E+00
   3.900p -7.8367E+03  0.0000E+00  5.8801E+03 -5.4875E+04  1.6094E+04  4.4662E+04  0.0000E+00  0.0000E+00  0.0000E+00
  53.945s  8.0680E+03  0.0000E+00  0.0000E+00  0.0000E+00  9.0000E+01  9.0000E+01  9.0000E+01  0.0000E+00  1.9269E-02

  rolling -7.8849E+03  2.9808E+02 -1.0929E+04  2.6497E+03 -1.5424E+04  1.1599E+03  6.8552E+02  0.0000E+00  0.0000E+00
 averages -7.9475E+03  0.0000E+00  5.9262E+03 -5.7168E+04  1.6294E+04  4.6800E+04  0.0000E+00  0.0000E+00  0.0000E+00
           7.9881E+03  0.0000E+00  0.0000E+00  0.0000E+00  9.0000E+01  9.0000E+01  9.0000E+01  0.0000E+00  2.1254E-02
 ------------------------------------------------------------------------------------------------------------------------
     7900 -7.8858E+03  2.9949E+02 -1.0805E+04  2.6444E+03 -1.5321E+04  1.1613E+03  7.1044E+02  0.0000E+00  0.0000E+00
   3.950p -7.8829E+03  0.0000E+00  6.1759E+03 -5.6831E+04  1.6314E+04  4.6693E+04  0.0000E+00  0.0000E+00  0.0000E+00
  54.616s  8.0628E+03  0.0000E+00  0.0000E+00  0.0000E+00  9.0000E+01  9.0000E+01  9.0000E+01  0.0000E+00 -1.3517E-01

  rolling -7.8848E+03  2.9819E+02 -1.0909E+04  2.6478E+03 -1.5405E+04  1.1612E+03  6.8700E+02  0.0000E+00  0.0000E+00
 averages -7.9191E+03  0.0000E+00  5.9074E+03 -5.7119E+04  1.6277E+04  4.6750E+04  0.0000E+00  0.0000E+00  0.0000E+00
           8.0002E+03  0.0000E+00  0.0000E+00  0.0000E+00  9.0000E+01  9.0000E+01  9.0000E+01  0.0000E+00  3.5332E-02
 ------------------------------------------------------------------------------------------------------------------------
 ------------------------------------------------------------------------------------------------------------------------

     step     eng_tot    temp_tot     eng_cfg     eng_vdw     eng_cou     eng_bnd     eng_ang     eng_dih     eng_tet
 time          eng_pv    temp_rot     vir_cfg     vir_vdw     vir_cou     vir_bnd     vir_ang     vir_con     vir_tet
 cpu time      volume    temp_shl     eng_shl     vir_shl       alpha        beta       gamma     vir_pmf       press

 ------------------------------------------------------------------------------------------------------------------------
     8000 -7.8841E+03  3.0912E+02 -1.0867E+04  2.6790E+03 -1.5428E+04  1.1427E+03  7.3949E+02  0.0000E+00  0.0000E+00
[...]

  rolling -7.8851E+03  2.9596E+02 -1.0981E+04  2.6329E+03 -1.5495E+04  1.1512E+03  7.2958E+02  0.0000E+00  0.0000E+00
 averages -8.0337E+03  0.0000E+00  5.9228E+03 -5.7185E+04  1.6280E+04  4.6827E+04  0.0000E+00  0.0000E+00  0.0000E+00
           7.9303E+03  0.0000E+00  0.0000E+00  0.0000E+00  9.0000E+01  9.0000E+01  9.0000E+01  0.0000E+00 -8.5951E-03
 ------------------------------------------------------------------------------------------------------------------------
   129700 -7.8851E+03  3.1446E+02 -1.0887E+04  2.6188E+03 -1.5367E+04  1.0920E+03  7.6955E+02  0.0000E+00  0.0000E+00
  64.850p -6.7529E+03  0.0000E+00  3.2863E+03 -5.6408E+04  1.6062E+04  4.3632E+04  0.0000E+00  0.0000E+00  0.0000E+00
  15.087m  8.1303E+03  0.0000E+00  0.0000E+00  0.0000E+00  9.0000E+01  9.0000E+01  9.0000E+01  0.0000E+00  2.0082E+00

  rolling -7.8851E+03  2.9715E+02 -1.0960E+04  2.6342E+03 -1.5482E+04  1.1548E+03  7.3325E+02  0.0000E+00  0.0000E+00
 averages -7.9978E+03  0.0000E+00  5.9372E+03 -5.7133E+04  1.6270E+04  4.6800E+04  0.0000E+00  0.0000E+00  0.0000E+00
           7.9531E+03  0.0000E+00  0.0000E+00  0.0000E+00  9.0000E+01  9.0000E+01  9.0000E+01  0.0000E+00 -3.0569E-03
 ------------------------------------------------------------------------------------------------------------------------
   129800 -7.8837E+03  3.0458E+02 -1.0853E+04  2.6611E+03 -1.5503E+04  1.2259E+03  7.6236E+02  0.0000E+00  0.0000E+00
  64.900p -8.0702E+03  0.0000E+00  6.8460E+03 -5.7287E+04  1.6003E+04  4.8130E+04  0.0000E+00  0.0000E+00  0.0000E+00
  15.098m  8.0521E+03  0.0000E+00  0.0000E+00  0.0000E+00  9.0000E+01  9.0000E+01  9.0000E+01  0.0000E+00 -5.2111E-01

  rolling -7.8850E+03  2.9903E+02 -1.0942E+04  2.6352E+03 -1.5473E+04  1.1587E+03  7.3708E+02  0.0000E+00  0.0000E+00
 averages -7.9480E+03  0.0000E+00  5.9352E+03 -5.7090E+04  1.6231E+04  4.6794E+04  0.0000E+00  0.0000E+00  0.0000E+00
           7.9754E+03  0.0000E+00  0.0000E+00  0.0000E+00  9.0000E+01  9.0000E+01  9.0000E+01  0.0000E+00  2.4439E-02
 ------------------------------------------------------------------------------------------------------------------------
   129900 -7.8843E+03  3.0123E+02 -1.0927E+04  2.5556E+03 -1.5369E+04  1.1628E+03  7.2388E+02  0.0000E+00  0.0000E+00
  64.950p -8.2336E+03  0.0000E+00  6.9473E+03 -5.5747E+04  1.6333E+04  4.6361E+04  0.0000E+00  0.0000E+00  0.0000E+00
  15.109m  8.0979E+03  0.0000E+00  0.0000E+00  0.0000E+00  9.0000E+01  9.0000E+01  9.0000E+01  0.0000E+00 -6.3160E-01

  rolling -7.8849E+03  3.0030E+02 -1.0922E+04  2.6304E+03 -1.5455E+04  1.1621E+03  7.4043E+02  0.0000E+00  0.0000E+00
 averages -7.9307E+03  0.0000E+00  6.0062E+03 -5.6932E+04  1.6199E+04  4.6739E+04  0.0000E+00  0.0000E+00  0.0000E+00
           8.0080E+03  0.0000E+00  0.0000E+00  0.0000E+00  9.0000E+01  9.0000E+01  9.0000E+01  0.0000E+00 -7.4344E-03
 ------------------------------------------------------------------------------------------------------------------------
   130000 -7.8859E+03  2.8919E+02 -1.0908E+04  2.4846E+03 -1.5226E+04  1.0665E+03  7.6720E+02  0.0000E+00  0.0000E+00
  65.000p -7.9277E+03  0.0000E+00  5.4862E+03 -5.5149E+04  1.6355E+04  4.4280E+04  0.0000E+00  0.0000E+00  0.0000E+00
  15.121m  8.0233E+03  0.0000E+00  0.0000E+00  0.0000E+00  9.0000E+01  9.0000E+01  9.0000E+01  0.0000E+00  1.9375E-01

  rolling -7.8848E+03  3.0074E+02 -1.0905E+04  2.6306E+03 -1.5445E+04  1.1640E+03  7.4523E+02  0.0000E+00  0.0000E+00
 averages -7.9113E+03  0.0000E+00  6.0219E+03 -5.6880E+04  1.6201E+04  4.6701E+04  0.0000E+00  0.0000E+00  0.0000E+00
           8.0302E+03  0.0000E+00  0.0000E+00  0.0000E+00  9.0000E+01  9.0000E+01  9.0000E+01  0.0000E+00 -1.2429E-02
 ------------------------------------------------------------------------------------------------------------------------
   130100 -7.8865E+03  2.9562E+02 -1.1045E+04  2.6079E+03 -1.5457E+04  1.1287E+03  6.7560E+02  0.0000E+00  0.0000E+00
  65.050p -8.7195E+03  0.0000E+00  7.7713E+03 -5.6852E+04  1.6358E+04  4.8265E+04  0.0000E+00  0.0000E+00  0.0000E+00
  15.132m  7.9587E+03  0.0000E+00  0.0000E+00  0.0000E+00  9.0000E+01  9.0000E+01  9.0000E+01  0.0000E+00 -1.2851E+00

  rolling -7.8848E+03  3.0080E+02 -1.0897E+04  2.6363E+03 -1.5446E+04  1.1652E+03  7.4721E+02  0.0000E+00  0.0000E+00
 averages -7.8913E+03  0.0000E+00  5.9894E+03 -5.6944E+04  1.6224E+04  4.6710E+04  0.0000E+00  0.0000E+00  0.0000E+00
           8.0397E+03  0.0000E+00  0.0000E+00  0.0000E+00  9.0000E+01  9.0000E+01  9.0000E+01  0.0000E+00  1.0876E-02
 ------------------------------------------------------------------------------------------------------------------------
   130200 -7.8856E+03  2.9132E+02 -1.1029E+04  2.6864E+03 -1.5481E+04  1.1094E+03  6.5652E+02  0.0000E+00  0.0000E+00
  65.100p -7.5100E+03  0.0000E+00  3.9764E+03 -5.8139E+04  1.6271E+04  4.5845E+04  0.0000E+00  0.0000E+00  0.0000E+00
  15.144m  7.8894E+03  0.0000E+00  0.0000E+00  0.0000E+00  9.0000E+01  9.0000E+01  9.0000E+01  0.0000E+00  1.2719E+00

  rolling -7.8847E+03  2.9990E+02 -1.0892E+04  2.6342E+03 -1.5436E+04  1.1642E+03  7.4549E+02  0.0000E+00  0.0000E+00
 averages -7.9032E+03  0.0000E+00  5.9951E+03 -5.6897E+04  1.6251E+04  4.6642E+04  0.0000E+00  0.0000E+00  0.0000E+00
           8.0461E+03  0.0000E+00  0.0000E+00  0.0000E+00  9.0000E+01  9.0000E+01  9.0000E+01  0.0000E+00 -4.7382E-03
 ------------------------------------------------------------------------------------------------------------------------
   130300 -7.8857E+03  2.8307E+02 -1.0938E+04  2.7193E+03 -1.5414E+04  1.1155E+03  6.4152E+02  0.0000E+00  0.0000E+00
  65.150p -7.9090E+03  0.0000E+00  5.0344E+03 -5.8384E+04  1.6710E+04  4.6709E+04  0.0000E+00  0.0000E+00  0.0000E+00
  15.155m  7.9283E+03  0.0000E+00  0.0000E+00  0.0000E+00  9.0000E+01  9.0000E+01  9.0000E+01  0.0000E+00  4.2323E-01

  rolling -7.8847E+03  2.9893E+02 -1.0895E+04  2.6364E+03 -1.5434E+04  1.1625E+03  7.4005E+02  0.0000E+00  0.0000E+00
 averages -7.9041E+03  0.0000E+00  5.9384E+03 -5.6971E+04  1.6290E+04  4.6619E+04  0.0000E+00  0.0000E+00  0.0000E+00
           8.0377E+03  0.0000E+00  0.0000E+00  0.0000E+00  9.0000E+01  9.0000E+01  9.0000E+01  0.0000E+00  2.1092E-02
 ------------------------------------------------------------------------------------------------------------------------
 ------------------------------------------------------------------------------------------------------------------------

     step     eng_tot    temp_tot     eng_cfg     eng_vdw     eng_cou     eng_bnd     eng_ang     eng_dih     eng_tet
 time          eng_pv    temp_rot     vir_cfg     vir_vdw     vir_cou     vir_bnd     vir_ang     vir_con     vir_tet
 cpu time      volume    temp_shl     eng_shl     vir_shl       alpha        beta       gamma     vir_pmf       press

 ------------------------------------------------------------------------------------------------------------------------
   130400 -7.8868E+03  3.0595E+02 -1.1116E+04  2.8995E+03 -1.5820E+04  1.1366E+03  6.6753E+02  0.0000E+00  0.0000E+00
  65.200p -7.6616E+03  0.0000E+00  4.8992E+03 -6.1024E+04  1.6865E+04  4.9058E+04  0.0000E+00  0.0000E+00  0.0000E+00
  15.167m  7.8463E+03  0.0000E+00  0.0000E+00  0.0000E+00  9.0000E+01  9.0000E+01  9.0000E+01  0.0000E+00  8.3953E-01

  rolling -7.8848E+03  2.9877E+02 -1.0912E+04  2.6387E+03 -1.5443E+04  1.1608E+03  7.3133E+02  0.0000E+00  0.0000E+00
 averages -7.9264E+03  0.0000E+00  5.9474E+03 -5.7042E+04  1.6344E+04  4.6645E+04  0.0000E+00  0.0000E+00  0.0000E+00
           8.0275E+03  0.0000E+00  0.0000E+00  0.0000E+00  9.0000E+01  9.0000E+01  9.0000E+01  0.0000E+00  1.3525E-02
 ------------------------------------------------------------------------------------------------------------------------
   130500 -7.8860E+03  2.9768E+02 -1.0983E+04  2.8669E+03 -1.5706E+04  1.0975E+03  7.5873E+02  0.0000E+00  0.0000E+00
  65.250p -6.5390E+03  0.0000E+00  1.5195E+03 -6.0707E+04  1.6592E+04  4.5635E+04  0.0000E+00  0.0000E+00  0.0000E+00
  15.178m  7.8303E+03  0.0000E+00  0.0000E+00  0.0000E+00  9.0000E+01  9.0000E+01  9.0000E+01  0.0000E+00  3.0840E+00

  rolling -7.8848E+03  2.9849E+02 -1.0931E+04  2.6327E+03 -1.5445E+04  1.1576E+03  7.2418E+02  0.0000E+00  0.0000E+00
 averages -7.9674E+03  0.0000E+00  6.0007E+03 -5.6998E+04  1.6375E+04  4.6623E+04  0.0000E+00  0.0000E+00  0.0000E+00
           8.0156E+03  0.0000E+00  0.0000E+00  0.0000E+00  9.0000E+01  9.0000E+01  9.0000E+01  0.0000E+00 -2.6394E-02
 ------------------------------------------------------------------------------------------------------------------------
   130600 -7.8844E+03  2.9303E+02 -1.0890E+04  2.5080E+03 -1.5288E+04  1.1982E+03  6.9217E+02  0.0000E+00  0.0000E+00
  65.300p -8.9772E+03  0.0000E+00  8.8803E+03 -5.5454E+04  1.6441E+04  4.7893E+04  0.0000E+00  0.0000E+00  0.0000E+00
  15.190m  7.9923E+03  0.0000E+00  0.0000E+00  0.0000E+00  9.0000E+01  9.0000E+01  9.0000E+01  0.0000E+00 -2.0730E+00

  rolling -7.8849E+03  2.9726E+02 -1.0942E+04  2.6290E+03 -1.5445E+04  1.1545E+03  7.2000E+02  0.0000E+00  0.0000E+00
 averages -7.9934E+03  0.0000E+00  5.9838E+03 -5.7017E+04  1.6382E+04  4.6618E+04  0.0000E+00  0.0000E+00  0.0000E+00
           7.9966E+03  0.0000E+00  0.0000E+00  0.0000E+00  9.0000E+01  9.0000E+01  9.0000E+01  0.0000E+00 -3.0158E-02
 ------------------------------------------------------------------------------------------------------------------------
   130700 -7.8848E+03  2.9560E+02 -1.0854E+04  2.3380E+03 -1.4983E+04  1.1499E+03  6.4106E+02  0.0000E+00  0.0000E+00
  65.350p -8.6970E+03  0.0000E+00  8.2755E+03 -5.2693E+04  1.6235E+04  4.4733E+04  0.0000E+00  0.0000E+00  0.0000E+00
  15.201m  8.1374E+03  0.0000E+00  0.0000E+00  0.0000E+00  9.0000E+01  9.0000E+01  9.0000E+01  0.0000E+00 -1.5957E+00

  rolling -7.8850E+03  2.9603E+02 -1.0950E+04  2.6316E+03 -1.5448E+04  1.1518E+03  7.1506E+02  0.0000E+00  0.0000E+00
 averages -7.9891E+03  0.0000E+00  5.8861E+03 -5.7125E+04  1.6397E+04  4.6613E+04  0.0000E+00  0.0000E+00  0.0000E+00
           7.9775E+03  0.0000E+00  0.0000E+00  0.0000E+00  9.0000E+01  9.0000E+01  9.0000E+01  0.0000E+00  2.1993E-02
 ------------------------------------------------------------------------------------------------------------------------
   130800 -7.8851E+03  3.0365E+02 -1.0880E+04  2.6256E+03 -1.5329E+04  1.1588E+03  6.6381E+02  0.0000E+00  0.0000E+00
  65.400p -7.6678E+03  0.0000E+00  5.5107E+03 -5.6863E+04  1.6392E+04  4.5982E+04  0.0000E+00  0.0000E+00  0.0000E+00
  15.212m  8.0456E+03  0.0000E+00  0.0000E+00  0.0000E+00  9.0000E+01  9.0000E+01  9.0000E+01  0.0000E+00  3.7251E-01

  rolling -7.8850E+03  2.9517E+02 -1.0951E+04  2.6358E+03 -1.5448E+04  1.1510E+03  7.1010E+02  0.0000E+00  0.0000E+00
 averages -7.9950E+03  0.0000E+00  5.8567E+03 -5.7190E+04  1.6454E+04  4.6593E+04  0.0000E+00  0.0000E+00  0.0000E+00
           7.9736E+03  0.0000E+00  0.0000E+00  0.0000E+00  9.0000E+01  9.0000E+01  9.0000E+01  0.0000E+00  3.0765E-02
 ------------------------------------------------------------------------------------------------------------------------
   130900 -7.8851E+03  3.0539E+02 -1.0859E+04  2.6091E+03 -1.5366E+04  1.1775E+03  7.2035E+02  0.0000E+00  0.0000E+00
  65.450p -8.1526E+03  0.0000E+00  7.1171E+03 -5.6334E+04  1.6647E+04  4.6804E+04  0.0000E+00  0.0000E+00  0.0000E+00
  15.224m  8.0819E+03  0.0000E+00  0.0000E+00  0.0000E+00  9.0000E+01  9.0000E+01  9.0000E+01  0.0000E+00 -6.9159E-01

  rolling -7.8851E+03  2.9497E+02 -1.0945E+04  2.6369E+03 -1.5442E+04  1.1506E+03  7.0913E+02  0.0000E+00  0.0000E+00
 averages -7.9902E+03  0.0000E+00  5.8497E+03 -5.7208E+04  1.6487E+04  4.6571E+04  0.0000E+00  0.0000E+00  0.0000E+00
           7.9709E+03  0.0000E+00  0.0000E+00  0.0000E+00  9.0000E+01  9.0000E+01  9.0000E+01  0.0000E+00  3.2509E-02
 ------------------------------------------------------------------------------------------------------------------------
   131000 -7.8853E+03  3.2636E+02 -1.1048E+04  2.5502E+03 -1.5460E+04  1.1241E+03  7.3792E+02  0.0000E+00  0.0000E+00
  65.500p -7.6977E+03  0.0000E+00  6.2305E+03 -5.6407E+04  1.6019E+04  4.6619E+04  0.0000E+00  0.0000E+00  0.0000E+00
  15.235m  7.8532E+03  0.0000E+00  0.0000E+00  0.0000E+00  9.0000E+01  9.0000E+01  9.0000E+01  0.0000E+00  1.9609E-01

  rolling -7.8850E+03  2.9633E+02 -1.0941E+04  2.6265E+03 -1.5422E+04  1.1516E+03  7.0199E+02  0.0000E+00  0.0000E+00
 averages -7.9839E+03  0.0000E+00  5.9106E+03 -5.7063E+04  1.6462E+04  4.6512E+04  0.0000E+00  0.0000E+00  0.0000E+00
           7.9674E+03  0.0000E+00  0.0000E+00  0.0000E+00  9.0000E+01  9.0000E+01  9.0000E+01  0.0000E+00  9.6204E-03
 ------------------------------------------------------------------------------------------------------------------------
   131100 -7.8857E+03  3.0765E+02 -1.0897E+04  2.4321E+03 -1.5102E+04  1.0772E+03  6.9543E+02  0.0000E+00  0.0000E+00
  65.550p -7.9551E+03  0.0000E+00  6.5215E+03 -5.4510E+04  1.5693E+04  4.5338E+04  0.0000E+00  0.0000E+00  0.0000E+00
  15.247m  7.9366E+03  0.0000E+00  0.0000E+00  0.0000E+00  9.0000E+01  9.0000E+01  9.0000E+01  0.0000E+00 -2.6322E-01

  rolling -7.8850E+03  2.9782E+02 -1.0931E+04  2.6084E+03 -1.5387E+04  1.1522E+03  6.9566E+02  0.0000E+00  0.0000E+00
 averages -7.9720E+03  0.0000E+00  5.9808E+03 -5.6824E+04  1.6383E+04  4.6422E+04  0.0000E+00  0.0000E+00  0.0000E+00
           7.9622E+03  0.0000E+00  0.0000E+00  0.0000E+00  9.0000E+01  9.0000E+01  9.0000E+01  0.0000E+00 -1.8418E-02
 ------------------------------------------------------------------------------------------------------------------------
 ------------------------------------------------------------------------------------------------------------------------

     step     eng_tot    temp_tot     eng_cfg     eng_vdw     eng_cou     eng_bnd     eng_ang     eng_dih     eng_tet
 time          eng_pv    temp_rot     vir_cfg     vir_vdw     vir_cou     vir_bnd     vir_ang     vir_con     vir_tet
 cpu time      volume    temp_shl     eng_shl     vir_shl       alpha        beta       gamma     vir_pmf       press

 ------------------------------------------------------------------------------------------------------------------------
   131200 -7.8843E+03  3.1042E+02 -1.1001E+04  2.4591E+03 -1.5279E+04  1.1837E+03  6.3510E+02  0.0000E+00  0.0000E+00
  65.600p -8.6928E+03  0.0000E+00  8.5608E+03 -5.4312E+04  1.6066E+04  4.6807E+04  0.0000E+00  0.0000E+00  0.0000E+00
  15.258m  8.0602E+03  0.0000E+00  0.0000E+00  0.0000E+00  9.0000E+01  9.0000E+01  9.0000E+01  0.0000E+00 -1.6039E+00

  rolling -7.8849E+03  2.9987E+02 -1.0926E+04  2.6092E+03 -1.5382E+04  1.1550E+03  6.9103E+02  0.0000E+00  0.0000E+00
 averages -7.9341E+03  0.0000E+00  5.9831E+03 -5.6827E+04  1.6356E+04  4.6453E+04  0.0000E+00  0.0000E+00  0.0000E+00
           7.9614E+03  0.0000E+00  0.0000E+00  0.0000E+00  9.0000E+01  9.0000E+01  9.0000E+01  0.0000E+00  7.8757E-03
 ------------------------------------------------------------------------------------------------------------------------
   131300 -7.8837E+03  2.9138E+02 -1.0899E+04  2.4681E+03 -1.5173E+04  1.1219E+03  6.8490E+02  0.0000E+00  0.0000E+00
  65.650p -8.2309E+03  0.0000E+00  6.5331E+03 -5.4607E+04  1.6213E+04  4.4927E+04  0.0000E+00  0.0000E+00  0.0000E+00
  15.270m  8.0188E+03  0.0000E+00  0.0000E+00  0.0000E+00  9.0000E+01  9.0000E+01  9.0000E+01  0.0000E+00 -4.8951E-01

  rolling -7.8848E+03  3.0010E+02 -1.0912E+04  2.6050E+03 -1.5361E+04  1.1557E+03  6.8850E+02  0.0000E+00  0.0000E+00
 averages -7.9271E+03  0.0000E+00  6.0170E+03 -5.6705E+04  1.6335E+04  4.6386E+04  0.0000E+00  0.0000E+00  0.0000E+00
           7.9734E+03  0.0000E+00  0.0000E+00  0.0000E+00  9.0000E+01  9.0000E+01  9.0000E+01  0.0000E+00 -1.2381E-02
 ------------------------------------------------------------------------------------------------------------------------
   131400 -7.8851E+03  2.9141E+02 -1.0971E+04  2.6340E+03 -1.5472E+04  1.1729E+03  6.9445E+02  0.0000E+00  0.0000E+00
  65.700p -8.4262E+03  0.0000E+00  6.9030E+03 -5.7429E+04  1.6221E+04  4.8112E+04  0.0000E+00  0.0000E+00  0.0000E+00
  15.281m  7.8688E+03  0.0000E+00  0.0000E+00  0.0000E+00  9.0000E+01  9.0000E+01  9.0000E+01  0.0000E+00 -7.5528E-01

  rolling -7.8847E+03  3.0005E+02 -1.0905E+04  2.6080E+03 -1.5357E+04  1.1572E+03  6.8640E+02  0.0000E+00  0.0000E+00
 averages -7.8994E+03  0.0000E+00  5.9510E+03 -5.6756E+04  1.6298E+04  4.6410E+04  0.0000E+00  0.0000E+00  0.0000E+00
           7.9673E+03  0.0000E+00  0.0000E+00  0.0000E+00  9.0000E+01  9.0000E+01  9.0000E+01  0.0000E+00  3.2984E-02
 ------------------------------------------------------------------------------------------------------------------------
   131500 -7.8855E+03  2.8486E+02 -1.0935E+04  2.8156E+03 -1.5613E+04  1.1039E+03  7.5806E+02  0.0000E+00  0.0000E+00
  65.750p -7.0678E+03  0.0000E+00  2.6082E+03 -5.9671E+04  1.6446E+04  4.5833E+04  0.0000E+00  0.0000E+00  0.0000E+00
  15.293m  7.9024E+03  0.0000E+00  0.0000E+00  0.0000E+00  9.0000E+01  9.0000E+01  9.0000E+01  0.0000E+00  2.1265E+00

  rolling -7.8846E+03  2.9899E+02 -1.0899E+04  2.6046E+03 -1.5346E+04  1.1561E+03  6.8660E+02  0.0000E+00  0.0000E+00
 averages -7.8964E+03  0.0000E+00  5.9082E+03 -5.6699E+04  1.6243E+04  4.6365E+04  0.0000E+00  0.0000E+00  0.0000E+00
           7.9685E+03  0.0000E+00  0.0000E+00  0.0000E+00  9.0000E+01  9.0000E+01  9.0000E+01  0.0000E+00  4.7872E-02
 ------------------------------------------------------------------------------------------------------------------------
   131600 -7.8847E+03  2.8663E+02 -1.0938E+04  2.8613E+03 -1.5811E+04  1.1879E+03  8.2398E+02  0.0000E+00  0.0000E+00
  65.800p -7.7511E+03  0.0000E+00  4.7373E+03 -6.0421E+04  1.6662E+04  4.8496E+04  0.0000E+00  0.0000E+00  0.0000E+00
  15.304m  7.8740E+03  0.0000E+00  0.0000E+00  0.0000E+00  9.0000E+01  9.0000E+01  9.0000E+01  0.0000E+00  6.8152E-01

  rolling -7.8846E+03  2.9849E+02 -1.0904E+04  2.6067E+03 -1.5354E+04  1.1556E+03  6.8796E+02  0.0000E+00  0.0000E+00
 averages -7.9097E+03  0.0000E+00  5.9078E+03 -5.6721E+04  1.6234E+04  4.6395E+04  0.0000E+00  0.0000E+00  0.0000E+00
           7.9673E+03  0.0000E+00  0.0000E+00  0.0000E+00  9.0000E+01  9.0000E+01  9.0000E+01  0.0000E+00  3.9644E-02
 ------------------------------------------------------------------------------------------------------------------------
   131700 -7.8857E+03  2.9343E+02 -1.0964E+04  2.5868E+03 -1.5404E+04  1.1092E+03  7.4412E+02  0.0000E+00  0.0000E+00
  65.850p -8.3246E+03  0.0000E+00  6.7191E+03 -5.6005E+04  1.6420E+04  4.6305E+04  0.0000E+00  0.0000E+00  0.0000E+00
  15.316m  8.0783E+03  0.0000E+00  0.0000E+00  0.0000E+00  9.0000E+01  9.0000E+01  9.0000E+01  0.0000E+00 -5.8415E-01

  rolling -7.8846E+03  2.9751E+02 -1.0907E+04  2.5988E+03 -1.5351E+04  1.1537E+03  6.9174E+02  0.0000E+00  0.0000E+00
 averages -7.9657E+03  0.0000E+00  6.0183E+03 -5.6566E+04  1.6224E+04  4.6361E+04  0.0000E+00  0.0000E+00  0.0000E+00
           7.9771E+03  0.0000E+00  0.0000E+00  0.0000E+00  9.0000E+01  9.0000E+01  9.0000E+01  0.0000E+00 -4.9134E-02
 ------------------------------------------------------------------------------------------------------------------------
   131800 -7.8854E+03  2.9847E+02 -1.0927E+04  2.3961E+03 -1.5002E+04  1.1087E+03  5.6986E+02  0.0000E+00  0.0000E+00
  65.900p -8.4434E+03  0.0000E+00  7.4391E+03 -5.3070E+04  1.5941E+04  4.4568E+04  0.0000E+00  0.0000E+00  0.0000E+00
  15.327m  8.2020E+03  0.0000E+00  0.0000E+00  0.0000E+00  9.0000E+01  9.0000E+01  9.0000E+01  0.0000E+00 -9.8783E-01

  rolling -7.8847E+03  2.9718E+02 -1.0915E+04  2.6107E+03 -1.5373E+04  1.1540E+03  6.9329E+02  0.0000E+00  0.0000E+00
 averages -7.9555E+03  0.0000E+00  5.9462E+03 -5.6716E+04  1.6217E+04  4.6445E+04  0.0000E+00  0.0000E+00  0.0000E+00
           7.9748E+03  0.0000E+00  0.0000E+00  0.0000E+00  9.0000E+01  9.0000E+01  9.0000E+01  0.0000E+00 -3.5702E-03
 ------------------------------------------------------------------------------------------------------------------------
