# Restart file written by Dissolve v1.3.0 at 10:30:18 on 29-06-2023.
Processing  CN(COM-COM)-Analyser//HistoCN_Bulk_Bins  IntegerHistogram1D  35  1
True 0 True 10
267  0 
0  36  0
9 
1 0 
0.05555555555555555  36  1.888888888888889
2 2 
1.6388888888888886  36  56.30555555555556
3 24 
19.138888888888893  36  668.3055555555555
4 106 
102.02777777777779  36  2746.9722222222217
5 97 
94.47222222222223  36  1682.9722222222217
6 34 
38.94444444444444  36  2303.88888888889
7 3 
9.333333333333334  36  327.99999999999994
8 1 
1.277777777777778  36  55.22222222222223
9 0 
0.1111111111111111  36  3.5555555555555545
Processing  CN(COM-COM)-Analyser//Process1D//CN  Data1D  35  1

11 True
0  0  0
1  0.000208073241781107  0.000870077468710574
2  0.0061381606325426556  0.004750401751984742
3  0.07168123179359137  0.016365988894961003
4  0.38212650853100305  0.03318041780772039
5  0.3538285476487725  0.025971270190794878
6  0.145859342488556  0.03038683597556581
7  0.03495630461922598  0.011465464086445266
8  0.004785684560965462  0.004704480319954251
9  0.000416146483562214  0.0011937364387859112
10  0  0
Processing  CN(COM-COM)//Bins_Bulk_Bins  IntegerHistogram1D  35  1
True 0 True 10
267  0 
0  36  0
9 
1 0 
0.05555555555555555  36  1.888888888888889
2 2 
1.6388888888888886  36  56.30555555555556
3 24 
19.138888888888893  36  668.3055555555555
4 106 
102.02777777777779  36  2746.9722222222217
5 97 
94.47222222222223  36  1682.9722222222217
6 34 
38.94444444444444  36  2303.88888888889
7 3 
9.333333333333334  36  327.99999999999994
8 1 
1.277777777777778  36  55.22222222222223
9 0 
0.1111111111111111  36  3.5555555555555545
Processing  CN(COM-COM)//Process1D//Histogram  Data1D  35  1

11 True
0  0  0
1  0.000208073241781107  0.000870077468710574
2  0.0061381606325426556  0.004750401751984742
3  0.07168123179359137  0.016365988894961003
4  0.38212650853100305  0.03318041780772039
5  0.3538285476487725  0.025971270190794878
6  0.145859342488556  0.03038683597556581
7  0.03495630461922598  0.011465464086445266
8  0.004785684560965462  0.004704480319954251
9  0.000416146483562214  0.0011937364387859112
10  0  0
Processing  Dissolve//Iteration  int  35  1
36
Processing  Dissolve//Potential_HW-HW_Additional  Data1D  35  1
HW-HW (Orig)
180 False
0  0
0.05  0
0.1  0
0.15000000000000002  0
0.2  0
0.25  0
0.30000000000000004  0
0.35000000000000003  0
0.4  0
0.45  0
0.5  0
0.55  0
0.6000000000000001  0
0.65  0
0.7000000000000001  0
0.75  0
0.8  0
0.8500000000000001  0
0.9  0
0.9500000000000001  0
1  0
1.05  0
1.1  0
1.1500000000000001  0
1.2000000000000002  0
1.25  0
1.3  0
1.35  0
1.4000000000000001  0
1.4500000000000002  0
1.5  0
1.55  0
1.6  0
1.6500000000000001  0
1.7000000000000002  0
1.75  0
1.8  0
1.85  0
1.9000000000000001  0
1.9500000000000002  0
2  0
2.0500000000000003  0
2.1  0
2.15  0
2.2  0
2.25  0
2.3000000000000003  0
2.35  0
2.4000000000000004  0
2.45  0
2.5  0
2.5500000000000003  0
2.6  0
2.6500000000000004  0
2.7  0
2.75  0
2.8000000000000003  0
2.85  0
2.9000000000000004  0
2.95  0
3  0
3.0500000000000003  0
3.1  0
3.1500000000000004  0
3.2  0
3.25  0
3.3000000000000003  0
3.35  0
3.4000000000000004  0
3.45  0
3.5  0
3.5500000000000003  0
3.6  0
3.6500000000000004  0
3.7  0
3.75  0
3.8000000000000003  0
3.85  0
3.9000000000000004  0
3.95  0
4  0
4.05  0
4.1000000000000005  0
4.15  0
4.2  0
4.25  0
4.3  0
4.3500000000000005  0
4.4  0
4.45  0
4.5  0
4.55  0
4.6000000000000005  0
4.65  0
4.7  0
4.75  0
4.800000000000001  0
4.8500000000000005  0
4.9  0
4.95  0
5  0
5.050000000000001  0
5.1000000000000005  0
5.15  0
5.2  0
5.25  0
5.300000000000001  0
5.3500000000000005  0
5.4  0
5.45  0
5.5  0
5.550000000000001  0
5.6000000000000005  0
5.65  0
5.7  0
5.75  0
5.800000000000001  0
5.8500000000000005  0
5.9  0
5.95  0
6  0
6.050000000000001  0
6.1000000000000005  0
6.15  0
6.2  0
6.25  0
6.300000000000001  0
6.3500000000000005  0
6.4  0
6.45  0
6.5  0
6.550000000000001  0
6.6000000000000005  0
6.65  0
6.7  0
6.75  0
6.800000000000001  0
6.8500000000000005  0
6.9  0
6.95  0
7  0
7.050000000000001  0
7.1000000000000005  0
7.15  0
7.2  0
7.25  0
7.300000000000001  0
7.3500000000000005  0
7.4  0
7.45  0
7.5  0
7.550000000000001  0
7.6000000000000005  0
7.65  0
7.7  0
7.75  0
7.800000000000001  0
7.8500000000000005  0
7.9  0
7.95  0
8  0
8.05  0
8.1  0
8.15  0
8.200000000000001  0
8.25  0
8.3  0
8.35  0
8.4  0
8.450000000000001  0
8.5  0
8.55  0
8.6  0
8.65  0
8.700000000000001  0
8.75  0
8.8  0
8.85  0
8.9  0
8.950000000000001  0
Processing  Dissolve//Potential_HW-OW_Additional  Data1D  35  1
HW-OW (Orig)
180 False
0  0
0.05  0
0.1  0
0.15000000000000002  0
0.2  0
0.25  0
0.30000000000000004  0
0.35000000000000003  0
0.4  0
0.45  0
0.5  0
0.55  0
0.6000000000000001  0
0.65  0
0.7000000000000001  0
0.75  0
0.8  0
0.8500000000000001  0
0.9  0
0.9500000000000001  0
1  0
1.05  0
1.1  0
1.1500000000000001  0
1.2000000000000002  0
1.25  0
1.3  0
1.35  0
1.4000000000000001  0
1.4500000000000002  0
1.5  0
1.55  0
1.6  0
1.6500000000000001  0
1.7000000000000002  0
1.75  0
1.8  0
1.85  0
1.9000000000000001  0
1.9500000000000002  0
2  0
2.0500000000000003  0
2.1  0
2.15  0
2.2  0
2.25  0
2.3000000000000003  0
2.35  0
2.4000000000000004  0
2.45  0
2.5  0
2.5500000000000003  0
2.6  0
2.6500000000000004  0
2.7  0
2.75  0
2.8000000000000003  0
2.85  0
2.9000000000000004  0
2.95  0
3  0
3.0500000000000003  0
3.1  0
3.1500000000000004  0
3.2  0
3.25  0
3.3000000000000003  0
3.35  0
3.4000000000000004  0
3.45  0
3.5  0
3.5500000000000003  0
3.6  0
3.6500000000000004  0
3.7  0
3.75  0
3.8000000000000003  0
3.85  0
3.9000000000000004  0
3.95  0
4  0
4.05  0
4.1000000000000005  0
4.15  0
4.2  0
4.25  0
4.3  0
4.3500000000000005  0
4.4  0
4.45  0
4.5  0
4.55  0
4.6000000000000005  0
4.65  0
4.7  0
4.75  0
4.800000000000001  0
4.8500000000000005  0
4.9  0
4.95  0
5  0
5.050000000000001  0
5.1000000000000005  0
5.15  0
5.2  0
5.25  0
5.300000000000001  0
5.3500000000000005  0
5.4  0
5.45  0
5.5  0
5.550000000000001  0
5.6000000000000005  0
5.65  0
5.7  0
5.75  0
5.800000000000001  0
5.8500000000000005  0
5.9  0
5.95  0
6  0
6.050000000000001  0
6.1000000000000005  0
6.15  0
6.2  0
6.25  0
6.300000000000001  0
6.3500000000000005  0
6.4  0
6.45  0
6.5  0
6.550000000000001  0
6.6000000000000005  0
6.65  0
6.7  0
6.75  0
6.800000000000001  0
6.8500000000000005  0
6.9  0
6.95  0
7  0
7.050000000000001  0
7.1000000000000005  0
7.15  0
7.2  0
7.25  0
7.300000000000001  0
7.3500000000000005  0
7.4  0
7.45  0
7.5  0
7.550000000000001  0
7.6000000000000005  0
7.65  0
7.7  0
7.75  0
7.800000000000001  0
7.8500000000000005  0
7.9  0
7.95  0
8  0
8.05  0
8.1  0
8.15  0
8.200000000000001  0
8.25  0
8.3  0
8.35  0
8.4  0
8.450000000000001  0
8.5  0
8.55  0
8.6  0
8.65  0
8.700000000000001  0
8.75  0
8.8  0
8.85  0
8.9  0
8.950000000000001  0
Processing  Dissolve//Potential_OW-OW_Additional  Data1D  35  1
OW-OW (Orig)
180 False
0  0
0.05  0
0.1  0
0.15000000000000002  0
0.2  0
0.25  0
0.30000000000000004  0
0.35000000000000003  0
0.4  0
0.45  0
0.5  0
0.55  0
0.6000000000000001  0
0.65  0
0.7000000000000001  0
0.75  0
0.8  0
0.8500000000000001  0
0.9  0
0.9500000000000001  0
1  0
1.05  0
1.1  0
1.1500000000000001  0
1.2000000000000002  0
1.25  0
1.3  0
1.35  0
1.4000000000000001  0
1.4500000000000002  0
1.5  0
1.55  0
1.6  0
1.6500000000000001  0
1.7000000000000002  0
1.75  0
1.8  0
1.85  0
1.9000000000000001  0
1.9500000000000002  0
2  0
2.0500000000000003  0
2.1  0
2.15  0
2.2  0
2.25  0
2.3000000000000003  0
2.35  0
2.4000000000000004  0
2.45  0
2.5  0
2.5500000000000003  0
2.6  0
2.6500000000000004  0
2.7  0
2.75  0
2.8000000000000003  0
2.85  0
2.9000000000000004  0
2.95  0
3  0
3.0500000000000003  0
3.1  0
3.1500000000000004  0
3.2  0
3.25  0
3.3000000000000003  0
3.35  0
3.4000000000000004  0
3.45  0
3.5  0
3.5500000000000003  0
3.6  0
3.6500000000000004  0
3.7  0
3.75  0
3.8000000000000003  0
3.85  0
3.9000000000000004  0
3.95  0
4  0
4.05  0
4.1000000000000005  0
4.15  0
4.2  0
4.25  0
4.3  0
4.3500000000000005  0
4.4  0
4.45  0
4.5  0
4.55  0
4.6000000000000005  0
4.65  0
4.7  0
4.75  0
4.800000000000001  0
4.8500000000000005  0
4.9  0
4.95  0
5  0
5.050000000000001  0
5.1000000000000005  0
5.15  0
5.2  0
5.25  0
5.300000000000001  0
5.3500000000000005  0
5.4  0
5.45  0
5.5  0
5.550000000000001  0
5.6000000000000005  0
5.65  0
5.7  0
5.75  0
5.800000000000001  0
5.8500000000000005  0
5.9  0
5.95  0
6  0
6.050000000000001  0
6.1000000000000005  0
6.15  0
6.2  0
6.25  0
6.300000000000001  0
6.3500000000000005  0
6.4  0
6.45  0
6.5  0
6.550000000000001  0
6.6000000000000005  0
6.65  0
6.7  0
6.75  0
6.800000000000001  0
6.8500000000000005  0
6.9  0
6.95  0
7  0
7.050000000000001  0
7.1000000000000005  0
7.15  0
7.2  0
7.25  0
7.300000000000001  0
7.3500000000000005  0
7.4  0
7.45  0
7.5  0
7.550000000000001  0
7.6000000000000005  0
7.65  0
7.7  0
7.75  0
7.800000000000001  0
7.8500000000000005  0
7.9  0
7.95  0
8  0
8.05  0
8.1  0
8.15  0
8.200000000000001  0
8.25  0
8.3  0
8.35  0
8.4  0
8.450000000000001  0
8.5  0
8.55  0
8.6  0
8.65  0
8.700000000000001  0
8.75  0
8.8  0
8.85  0
8.9  0
8.950000000000001  0
Processing  ImportTrajectory01//TrajectoryPosition_Bulk  streampos  70  1
1416852
Configuration  'Bulk'
'Bulk'  267  # nMolecules
2.000000e+01 2.000000e+01 2.000000e+01  1  1  False
9.000000e+01 9.000000e+01 9.000000e+01
267
267  'Water'
801  # nAtoms
0 10.74808758 9.15684796 9.19807111
0 10.525944759999998 9.06297016 8.19125022
0 10.777396 8.12700573 7.899507510000001
1 0.06093273 6.50273984 15.59865465
1 0.32180831 7.10832 14.783279
1 0.70382518 7.943449770000001 15.2705227
2 15.85973707 14.308602439999998 10.8607458
2 15.50586867 15.25921182 11.17140259
2 16.209958009999998 15.871311910000001 10.77216628
3 11.675779649999999 13.248342300000001 18.735521
3 12.214169359999998 13.7771503 19.439964279999998
3 12.295311469999998 13.242541919999999 0.32348705
4 5.69062806 7.5782943000000005 4.58563438
4 5.51493449 8.52316405 4.92308735
4 6.054139840000001 9.14049519 4.27904781
5 10.809573320000002 5.74035614 13.112243389999998
5 10.41305889 5.258306620000001 12.303324739999999
5 9.41328477 5.53408114 12.501574459999997
6 15.3462542 1.55793745 7.37658452
6 16.068327280000002 2.18366858 7.022663840000001
6 16.87142244 1.4668984800000002 6.933745990000001
7 9.084723740000001 14.290121939999999 4.53501803
7 8.59233591 13.394611620000001 4.49157358
7 9.17311386 12.543090389999998 4.25645381
8 7.29441708 10.86344914 4.39633678
8 6.793304980000001 10.54563615 3.60682818
8 7.265094950000001 10.863158760000001 2.79900428
9 3.54972873 3.8988590300000006 15.8589115
9 3.48766218 3.33385321 15.03885408
9 4.42544616 3.1910351200000004 14.65243772
10 12.22247741 13.90310202 8.02183622
10 11.79380721 13.9979628 7.08985325
10 11.27880128 13.15233249 6.938674150000001
11 15.87298442 8.02230522 17.355776249999998
11 15.01100589 7.963332030000001 17.924608929999998
11 15.16427237 8.391931 18.777642450000002
12 10.354121 18.24974385 2.3037589800000005
12 11.195522589999998 18.27153078 2.89012506
12 12.045263239999999 18.18962879 2.31294767
13 14.942976139999999 0.86093545 10.04086721
13 14.647816149999999 1.57383278 9.35214539
13 15.23030288 2.39337257 9.41246063
14 1.6207330200000003 9.91420169 10.1417217
14 2.02963108 10.81197491 10.53730668
14 2.21996538 10.57376823 11.52424586
15 15.23334008 14.21555021 18.63211956
15 14.89116666 13.43632221 18.12149918
15 14.12889616 13.05241401 18.66404722
16 8.248013200000003 10.72397723 15.203180139999999
16 8.71467093 10.899490309999997 16.12004274
16 8.00829579 10.82350475 16.841659659999998
17 0.05288549 12.87102376 4.43702374
17 0.31552388 13.73595782 4.84010146
17 0.82943061 14.298317589999998 4.17171008
18 8.34357258 17.90297277 2.40717126
18 8.87384338 18.36304066 1.6668939700000003
18 9.46157434 17.78291395 1.03488845
19 17.41410715 14.901827619999999 18.96868421
19 16.65013105 15.39742515 19.48455594
19 17.05563126 16.274037619999998 19.80182223
20 5.2869073 19.21678867 1.57553504
20 5.42087388 0.19041513 1.8489010400000003
20 4.47601258 0.59368145 1.9937766300000002
21 13.153116919999999 18.28895143 0.05816519
21 13.27815192 18.74495082 0.9869584600000001
21 13.19188047 19.71723564 0.9121025700000001
22 6.058861640000001 0.63157167 11.08660528
22 6.259725540000001 1.0183461 11.988412679999998
22 7.267173690000001 0.9596644500000001 12.12424714
23 8.98175032 8.42547657 7.17525199
23 8.36494375 7.932185890000001 6.574805050000001
23 7.3841095800000005 7.890100790000001 6.920057760000001
24 18.78201941 16.16031722 10.002911139999998
24 17.86150962 16.51497377 10.375932080000002
24 17.71569963 17.37367734 9.80419668
25 5.14127734 13.855926629999999 6.93945613
25 4.62246491 14.29519144 7.689912640000001
25 4.33396476 13.580973319999998 8.35322126
26 13.44281922 10.240182569999998 5.92556347
26 14.46450891 10.174992110000002 6.001098460000001
26 14.68941638 9.17946164 6.12711149
27 13.43235392 13.77283086 12.85315077
27 13.71995202 13.496724150000002 11.90221566
27 14.44909555 14.147260209999999 11.60825672
28 15.8372518 3.64945125 6.66147047
28 15.754463560000001 4.67842267 6.59667179
28 16.64786407 5.0711531700000005 6.9925619800000005
29 10.86339907 19.24720678 6.27453321
29 10.986953609999999 18.435497480000002 5.59720707
29 11.140303849999999 18.6765072 4.5984365
30 7.896914540000001 9.608080920000003 11.91124213
30 8.92990661 9.7478716 12.04366421
30 9.20324906 10.67048979 11.878304289999999
31 11.631912930000002 18.44295846 16.932191930000002
31 12.10879627 17.68706119 16.39978658
31 12.54406706 18.13440733 15.60519213
32 3.87767384 8.62820097 18.24022562
32 3.93526686 9.48336224 17.66034632
32 4.63589253 9.37900441 16.906325600000002
33 8.41467937 2.95320722 5.250731230000001
33 8.2769417 1.99959225 5.63933901
33 7.86532829 1.47423561 4.85089298
34 7.065426390000001 12.80592164 6.8565504200000005
34 7.764779370000001 12.592295440000001 7.56454711
34 7.300508560000001 12.185694520000002 8.380698970000001
35 17.78419296 5.6855667 11.8690876
35 17.35979009 5.5070726400000005 10.98032662
35 17.63958019 6.28624785 10.34821042
36 16.53940195 5.822518260000001 2.5702570600000003
36 16.32271134 6.44179013 1.7811226400000002
36 16.7635858 5.952018300000001 0.9930878
37 15.75248179 15.880868509999999 7.1919712
37 16.29310565 16.68773518 6.88686696
37 17.11937261 16.31573843 6.36187202
38 2.45753321 9.22847742 16.81929503
38 1.5901982400000003 9.0877125 16.18562669
38 0.82965554 9.33845097 16.83852693
39 11.55031631 4.62340584 4.2692347
39 11.03665264 5.46722568 4.19437911
39 11.55915193 5.98527866 3.4707312000000003
40 19.90732742 14.45915707 0.01256546
40 0.00146559 14.580202660000001 1.02321952
40 19.95500989 15.604092810000001 1.26084541
41 17.65470148 16.51965371 14.478041949999998
41 17.292336289999998 15.99785709 15.29173018
41 17.95598631 16.2529845 16.01102229
42 15.70518281 18.94583171 3.26603907
42 15.906936380000001 18.40235122 2.400286
42 14.91993287 18.424433490000002 2.03070954
43 6.88573467 11.790988769999998 13.3727588
43 6.83047792 11.140542939999998 14.172483859999998
43 6.33983388 11.51369346 14.972694999999998
44 18.28339114 12.205624 7.46077388
44 17.69796229 12.329488039999998 6.606570070000001
44 18.09311541 13.12217531 6.137675250000001
45 10.495031049999998 4.86152975 16.47743517
45 10.300678869999999 5.815277010000001 16.73386942
45 10.647946400000002 5.897311900000001 17.7203999
46 8.008148990000002 3.51770607 1.6406249500000003
46 8.780404950000001 4.17945289 1.8599600100000002
46 9.62868552 3.6871867900000006 1.5512741500000002
47 1.4891022 18.75881284 18.12161427
47 0.58685423 18.516778940000002 18.57422509
47 19.817461350000002 19.104316779999998 18.16942035
48 19.12130605 14.68689179 5.626834280000001
48 18.16983292 14.927431259999999 5.9709775700000005
48 17.55261561 15.17786954 5.121686910000001
49 11.889091480000001 14.93925028 14.36097282
49 10.98603653 15.349316660000001 14.13951193
49 11.03393831 16.22465271 14.68779284
50 0.27261347 5.47194586 17.38488117
50 19.43169524 5.698950150000001 16.845932310000002
50 18.71875541 4.92111244 16.99050815
51 6.92612315 6.44717853 1.31877547
51 5.99767335 6.55742987 1.7338101500000003
51 5.46648939 5.62153899 1.6315870600000002
52 4.71427684 1.94039065 18.39538326
52 4.52770778 2.5408490100000005 19.189419299999997
52 5.42672954 2.5465411500000004 19.753467920000002
53 11.42863251 1.10773804 11.24012813
53 11.24483102 0.43614631000000004 12.03466585
53 12.107717430000001 0.47472509 12.523146999999998
54 11.53540231 11.906950720000001 9.66544441
54 12.42638389 12.38757606 9.49548364
54 12.794525750000002 12.83647711 10.35955351
55 3.8010052600000006 6.43855109 3.1129404400000005
55 2.78967429 6.367321960000001 3.2967097100000005
55 2.57550138 5.40523999 2.99724565
56 19.27287535 6.20947297 13.70345967
56 18.35879339 5.8415164200000005 13.368889070000002
56 17.5961482 6.392207920000001 13.828258089999999
57 19.04595536 9.16893253 6.97741184
57 19.01037917 8.74948804 6.063342930000001
57 18.041817199999997 9.10088338 5.78608317
58 1.21084651 17.16029982 12.54552446
58 1.7370851600000001 16.75056889 13.36934877
58 1.65791488 17.54019185 13.99371738
59 18.12255775 16.62466435 12.30770879
59 18.50705689 17.13149457 13.13335042
59 18.7364247 18.132108419999998 12.90114257
60 12.580516500000002 5.392927270000001 7.06893869
60 13.14751896 5.05207403 7.833325520000001
60 13.958750129999999 4.5496732 7.566597220000001
61 18.07009905 12.73678888 16.3656221
61 17.958799329999998 12.858745159999998 15.33779644
61 18.89295537 12.65118348 14.898022399999999
62 9.63603738 12.872140019999998 17.99755531
62 10.52849819 12.47418132 17.76580992
62 10.33903458 11.644934340000002 17.25980925
63 10.594971310000002 10.3121114 4.22595641
63 9.74552066 10.91466521 4.51050799
63 9.894569 11.02467726 5.52148569
64 10.28285565 19.44358187 10.5470633
64 10.063031589999998 19.61721479 9.55288026
64 10.87278461 0.17059395000000002 9.24188927
65 16.35938091 18.85060861 9.42331883
65 16.9957089 18.54807153 8.67412499
65 16.65771831 17.88614424 7.987475420000001
66 12.744409079999999 2.89590217 3.71525672
66 12.181697869999999 3.1468796200000004 4.52898668
66 11.7659376 2.36436561 5.02834702
67 19.8126475 6.395983300000001 0.64636406
67 19.34102364 6.4142490500000005 19.71108923
67 0.04671402000000001 6.37346928 19.0106913
68 0.6146614 0.14753103 12.4108032
68 19.70420386 19.63569213 12.29959828
68 18.91045629 0.25486339 12.49743355
69 12.18194708 6.50911244 19.61348142
69 11.89410208 5.86275363 18.88468863
69 12.68707392 5.74015256 18.22084562
70 13.11766212 8.62892271 17.9675258
70 12.56274342 9.48429715 17.77184016
70 12.84214502 10.002608579999999 16.97492028
71 4.02364805 11.20174104 8.14757081
71 3.7152871600000004 11.89142585 8.8907994
71 2.9718741900000003 11.28914955 9.35118183
72 2.67450771 18.260184589999998 3.5800621200000005
72 2.73192044 17.69141028 2.72945641
72 3.70172043 17.73868676 2.35957727
73 7.59872141 15.39180888 13.90856474
73 7.50648337 16.35485533 13.58614695
73 6.81705534 16.19445589 12.804430609999999
74 3.9048164100000005 7.89664426 0.30935184
74 4.09117698 7.55762018 19.35400741
74 5.13023188 7.2268197 19.27069602
75 12.784390989999999 17.05198364 10.93113705
75 12.42974341 17.15712946 11.87522147
75 11.406745019999999 17.01144553 11.933915729999999
76 1.5505964500000002 12.138401499999997 19.70831778
76 2.43208225 11.980616619999997 0.18893613000000004
76 2.77029558 12.640812910000001 0.9904356600000002
77 17.93732285 1.7701055700000001 13.12987029
77 17.47620466 1.20020831 12.44625546
77 17.47909194 1.7988980600000002 11.58310416
78 14.642065469999999 6.31871499 2.54983403
78 13.73756714 6.51059873 3.0579422700000003
78 13.17568051 6.972558380000001 2.35323788
79 1.96149248 2.43676926 14.879095410000001
79 0.9959654400000001 2.07161765 15.098715819999999
79 0.35628848 2.3162861 14.34254799
80 3.61658295 0.20123881 17.41894844
80 2.90133826 19.46631381 17.62855249
80 3.34450854 18.61541278 17.939797419999998
81 4.683567870000001 12.902037140000001 14.579084629999999
81 3.9026906300000004 12.674019269999999 13.93835762
81 3.6827343800000003 13.332380009999998 13.238767550000002
82 5.188829890000001 9.44998451 2.25721698
82 4.698088460000001 8.75899785 1.7125173800000002
82 5.40343159 7.96246373 1.6066865800000003
83 12.00192311 17.0697057 5.87569263
83 12.683461729999998 16.70837692 6.5999316100000005
83 12.38438902 15.67280314 6.773908400000001
84 16.4847798 8.07399251 13.635399069999998
84 16.16336088 7.3050486800000005 14.23503059
84 15.209389719999999 7.010719430000001 14.022237220000001
85 8.80139583 15.330786510000001 16.567798439999997
85 9.018188 16.13457042 17.12450785
85 9.74048921 15.91718646 17.82171038
86 4.977777960000001 14.014242609999998 2.93012761
86 4.19954406 13.50771799 3.3226777800000002
86 3.27712917 14.002395929999999 3.1662525100000005
87 17.88841574 0.58166998 15.32278719
87 18.442117879999998 19.78203285 15.60624925
87 17.86792778 19.05161623 15.99861037
88 10.195212549999999 8.98529515 11.221069469999998
88 11.127552679999999 8.92975735 10.752182069999998
88 11.42306494 9.82764515 11.10861788
89 0.54892742 14.732331730000002 9.68834554
89 19.78648976 15.20358355 9.24590933
89 0.13179897 15.59971901 8.36944266
90 17.280879489999997 2.85063195 17.40793936
90 17.28769102 3.7405672100000005 16.80045645
90 16.34710379 3.90391014 16.36149141
91 16.15267544 4.76028797 4.98715592
91 16.60125748 5.03303189 4.05901492
91 17.4850158 5.44804038 4.20652569
92 3.9309352800000004 2.67609239 5.67768
92 3.16789032 2.83588114 6.346449500000001
92 3.62809454 2.85554184 7.24180611
93 8.59882357 19.65376349 8.35910707
93 7.922311020000001 19.82676066 7.582539960000001
93 8.21586277 0.68203069 7.058874230000001
94 5.38142971 9.06609862 11.82568978
94 6.25089284 9.61442541 11.76254745
94 6.38973557 10.05085313 12.69346092
95 5.97357743 2.11214987 13.255419019999998
95 5.7422761 3.00531259 13.681075749999998
95 6.58710015 3.43124266 13.99433045
96 4.21980156 4.22868117 18.05170934
96 4.1189965 4.67996962 17.11972823
96 4.7860315 5.38397395 16.94671185
97 19.576236559999998 5.2005267 3.6095115100000004
97 19.78177277 4.20964768 3.6421000800000005
97 0.26438475000000006 4.23157366 4.52265439
98 0.35698992000000007 7.50498113 11.4712145
98 0.6363509300000001 6.58429031 11.192794159999998
98 1.28714988 6.192284580000001 11.87019577
99 2.46933065 13.875232230000002 11.11841503
99 1.94113785 13.753268080000002 10.273793389999998
99 2.24313473 12.87526857 9.8670102
100 11.5794303 4.54456576 0.1178467
100 11.326057889999998 3.68197291 0.59662727
100 12.215984820000001 3.5071190000000003 1.09592225
101 8.80923899 2.56272377 11.59658516
101 8.35142803 3.2376870900000005 11.04126744
101 8.47442134 3.0298211300000006 10.030013140000001
102 18.618367680000002 8.92747991 11.99855942
102 19.5968234 8.92029675 12.000132739999998
102 19.963136130000002 8.9349825 12.97634071
103 6.4824861600000006 17.606202529999997 16.60007507
103 7.203651660000001 17.98944731 17.19263042
103 8.0829346 17.35306843 17.01470753
104 18.39930178 6.482200210000001 6.483954160000001
104 18.25464213 5.909800710000001 7.277397780000001
104 18.255605 6.431840750000001 8.1864189
105 19.20990986 7.803423180000001 4.51036112
105 19.1494847 6.952894810000001 3.91594616
105 19.64478208 7.115937470000001 2.97581844
106 18.07439526 5.31908542 0.09624168000000001
106 17.33310721 4.57851692 0.15250076
106 17.76489281 3.6257819000000002 0.28912114
107 4.41991044 0.27573283 12.97762011
107 3.8953691300000006 19.62552602 13.52228245
107 3.25959739 0.052119990000000005 14.17870567
108 10.21422721 9.57718949 13.3206396
108 10.73944096 9.630468610000001 14.15316786
108 10.37307058 10.352353690000001 14.72751714
109 19.36444624 15.19721847 13.97589747
109 0.2571337 14.652572020000001 13.94072381
109 0.9091854300000001 15.42671943 13.70420626
110 10.775597060000003 7.3270658200000005 1.48137702
110 11.76948935 7.44564552 1.3950032300000001
110 11.73432463 8.45206901 1.00378755
111 0.33713868 19.50377189 15.032533260000001
111 1.22090278 18.97435662 15.250150490000001
111 1.62918358 19.256860630000002 16.14270019
112 16.38465426 18.80463071 19.29259251
112 15.82855149 19.261030050000002 18.54241691
112 15.41839814 18.66146085 17.80987401
113 8.76371198 7.8875385200000006 4.94815901
113 9.02776367 8.22455996 3.9844579
113 9.2577651 9.264540970000002 4.06333707
114 14.91872855 19.67118692 5.47939871
114 15.4337778 19.79839674 4.5762974
114 15.491633700000001 0.80640832 4.46347044
115 0.25781334 18.333876330000002 10.845317209999997
115 1.05836249 17.69988841 10.79483459
115 1.11393865 17.5174133 9.83993516
116 19.11911302 9.5756397 18.53493009
116 19.06656491 9.83783737 17.522679359999998
116 18.43334068 9.17241367 17.07382508
117 7.91099456 1.81699871 16.22431172
117 8.33181073 2.72059039 16.27789323
117 9.3782412 2.7035507 16.16452641
118 7.606401700000001 4.20865328 15.822131850000002
118 7.10364717 5.04951755 15.518523779999999
118 7.554135780000001 5.85594189 15.83783416
119 2.72547205 15.18812639 16.09007469
119 3.44082971 15.74882724 16.59445349
119 4.004801860000001 16.26064641 15.87211843
120 14.35620669 6.65238424 17.33003192
120 13.85998761 5.80083308 16.878506209999998
120 13.481310180000001 6.09969333 15.99764916
121 15.29671977 15.56699755 0.45418587000000005
121 14.34420169 15.41102555 0.79709002
121 13.60977309 15.710391260000002 0.09932566000000001
122 14.34385009 14.185115719999999 3.5747624100000004
122 14.1443042 13.16802998 3.7862688800000006
122 13.801005570000001 12.944749089999998 4.73829187
123 1.20649227 8.23959251 1.58416056
123 0.7970097100000001 7.33124702 1.81274733
123 1.5225461500000002 6.912554650000001 2.42483005
124 8.5736831 0.15102483 3.1382968400000006
124 7.6903282100000006 0.68723048 3.3238486200000006
124 6.89263519 0.46546903 2.7104723700000006
125 2.69072433 2.4716547 19.432354439999997
125 1.6847542300000002 2.4841333200000006 19.61033458
125 1.19648711 2.2249334 18.73486996
126 9.32757648 4.90415937 4.714753700000001
126 8.468310510000002 4.40215253 4.4918239
126 8.57885109 4.18433166 3.51044773
127 6.123281460000001 14.658964110000001 8.751970270000001
127 6.77047145 15.15281582 9.382485
127 7.612249790000001 15.64056324 8.96539099
128 8.59631461 8.68735245 16.52299199
128 8.388671930000001 7.69233334 16.69212086
128 9.245055220000001 7.08565887 16.62269698
129 17.65417233 12.30792597 13.443905780000001
129 16.737830279999997 11.99697541 13.13043596
129 16.083024079999998 12.132807660000001 13.93482118
130 1.58664558 5.98071482 13.942257859999998
130 1.87499833 5.18966559 13.443096739999998
130 2.62849662 4.58618291 13.8676368
131 17.075095920000003 3.96696264 10.455256799999999
131 17.2592192 2.94432896 10.285415019999999
131 17.90492707 2.8402382 9.48071304
132 17.087633229999998 10.28588572 12.75533631
132 16.89554115 9.33877843 12.41641945
132 16.19351469 9.4469313 11.654137260000002
133 18.89862674 2.00727572 1.21286687
133 19.06988746 2.52238668 0.30028604000000003
133 0.007761550000000001 2.53125837 19.91146037
134 4.94000322 3.9560749700000004 4.48704551
134 4.98081299 2.90667632 4.462453980000001
134 5.738469200000001 2.61473085 3.88254688
135 18.81675385 19.94496707 6.76093742
135 18.15677184 0.52184655 7.330232350000001
135 17.59126538 19.81151419 7.75501378
136 11.13900116 13.824863579999999 2.28449449
136 10.126580050000001 14.14741518 2.17495061
136 9.81996588 14.80900041 2.86144056
137 14.938330889999998 12.77379303 16.63623228
137 15.20799533 12.65180687 15.65692773
137 16.248803189999997 12.90970207 15.535659070000001
138 19.3256565 13.418806629999999 18.33567511
138 18.698388610000002 14.23237888 18.50895973
138 18.78580188 14.7401032 17.65876826
139 11.768762559999999 3.06708679 15.503286809999999
139 10.92904658 3.1589628100000002 16.09549998
139 11.22867073 2.80971512 17.01376862
140 5.694515930000001 17.83497303 3.7518496800000003
140 6.489829820000001 17.15757907 3.71744082
140 6.851712450000001 17.177278389999998 4.73848168
141 0.69942356 4.81449922 10.24904949
141 1.01173682 3.90179251 9.98035304
141 0.27737135 3.46802447 9.3676886
142 8.81062799 12.13529603 9.76481717
142 9.642210900000002 11.9831822 10.394576089999997
142 9.93082456 12.804543929999998 10.91541382
143 15.1266995 3.57190245 14.136208899999998
143 15.168957970000001 3.9722611600000004 15.082796199999999
143 14.77659783 4.91928255 15.127081630000001
144 7.153636520000001 3.49317266 18.96092371
144 7.436420680000001 4.12149131 18.258527280000003
144 7.758529960000001 3.5951597300000007 17.489476609999997
145 6.33602652 1.42504677 0.8685879600000002
145 6.88181222 2.11212328 0.34592245
145 7.693317500000001 1.62006113 19.96135133
146 18.41099137 13.814507250000002 1.49262113
146 17.46023852 13.412502370000002 1.5286199
146 16.97405576 13.785076959999998 0.73048136
147 6.9416575300000005 19.584844150000002 16.38113057
147 7.067266760000001 0.29128682000000006 15.60998572
147 6.964802370000001 19.90029059 14.656223869999998
148 14.995641919999997 6.45337453 5.87456022
148 14.621280350000001 7.3857595 5.74880673
148 14.088652669999998 7.44437858 4.84040675
149 1.30053257 14.733093369999999 2.1216214
149 1.92713166 15.049510569999999 2.84131564
149 2.06062996 16.07875238 2.7830421200000006
150 4.9670841 16.86814242 11.46575
150 5.577634050000001 16.11109051 11.725040839999998
150 6.006113790000001 15.864024180000001 10.85292974
151 5.72518335 17.055314770000003 1.21584464
151 4.9048823 17.67885247 1.23848133
151 4.21081906 17.6141836 0.49128437
152 4.68572707 16.00699186 6.834665490000001
152 4.75156927 17.0482636 6.778649880000001
152 4.3558832 17.50426414 7.59288469
153 4.3755136 9.89425574 5.587650380000001
153 3.77308569 10.263707 6.3986419
153 2.87401214 9.95794723 6.03382881
154 2.6832420200000002 15.34914004 12.61969813
154 3.37523169 14.652801809999998 12.266735039999999
154 4.25653098 15.16730977 12.297867459999999
155 1.92652348 8.04189461 5.71836071
155 2.37321502 7.090271230000001 5.80619349
155 2.7333437500000004 6.98058557 4.82634458
156 13.904153990000001 11.68454372 8.90714978