Configuration  'Bulk'
'Bulk'  200  # nMolecules
3.093831e+01 3.093831e+01 3.093831e+01  1.0  1.0  False
9.000000e+01 9.000000e+01 9.000000e+01
200
200  'Benzene'
2400  # nAtoms
0 2.520701e+01 1.775156e+01 2.483660e+01
0 2.631551e+01 1.731484e+01 2.410087e+01
0 2.741235e+01 1.705585e+01 2.491886e+01
0 2.740781e+01 1.699463e+01 2.636809e+01
0 2.627727e+01 1.739919e+01 2.704746e+01
0 2.519812e+01 1.783426e+01 2.621615e+01
0 2.829606e+01 1.670588e+01 2.441406e+01
0 2.828478e+01 1.659992e+01 2.684760e+01
0 2.616163e+01 1.732942e+01 2.811772e+01
0 2.428552e+01 1.813534e+01 2.662849e+01
0 2.435434e+01 1.816078e+01 2.430782e+01
0 2.631506e+01 1.731565e+01 2.302328e+01
1 2.227422e+01 9.203633e+00 7.693914e+00
1 2.358313e+01 8.755681e+00 7.841122e+00
1 2.447692e+01 9.326391e+00 8.711988e+00
1 2.400731e+01 1.033332e+01 9.597960e+00
1 2.268752e+01 1.077584e+01 9.578246e+00
1 2.183699e+01 1.017588e+01 8.629563e+00
1 2.552036e+01 9.081891e+00 8.641411e+00
1 2.476526e+01 1.076846e+01 1.022076e+01
1 2.238466e+01 1.157423e+01 1.026548e+01
1 2.079836e+01 1.046539e+01 8.671645e+00
1 2.154243e+01 8.769946e+00 6.997072e+00
1 2.388728e+01 7.981783e+00 7.154237e+00
2 1.133891e+01 1.498619e+01 1.409836e+01
2 1.003247e+01 1.536478e+01 1.378506e+01
2 9.591069e+00 1.669570e+01 1.358915e+01
2 1.060690e+01 1.772277e+01 1.368628e+01
2 1.189323e+01 1.738229e+01 1.412837e+01
2 1.229551e+01 1.606133e+01 1.416304e+01
2 8.571824e+00 1.699063e+01 1.337899e+01
2 1.028648e+01 1.874934e+01 1.364750e+01
2 1.255750e+01 1.822361e+01 1.418930e+01
2 1.332846e+01 1.584519e+01 1.442164e+01
2 1.166284e+01 1.398218e+01 1.425360e+01
2 9.302449e+00 1.460509e+01 1.372277e+01
3 2.496750e+01 2.346054e+01 2.736777e+01
3 2.407748e+01 2.240681e+01 2.705628e+01
3 2.458834e+01 2.138629e+01 2.619816e+01
3 2.594114e+01 2.150323e+01 2.582352e+01
3 2.681149e+01 2.255380e+01 2.620686e+01
3 2.632083e+01 2.358938e+01 2.700130e+01
3 2.397031e+01 2.058153e+01 2.579629e+01
3 2.629513e+01 2.071805e+01 2.520216e+01
3 2.783557e+01 2.251518e+01 2.588300e+01
3 2.694726e+01 2.439519e+01 2.736270e+01
3 2.460427e+01 2.427662e+01 2.791899e+01
3 2.302199e+01 2.242275e+01 2.732818e+01
4 4.293274e+00 1.324399e+01 6.729728e+00
4 4.221280e+00 1.218669e+01 7.662700e+00
4 4.400725e+00 1.092252e+01 7.203085e+00
4 4.383437e+00 1.053118e+01 5.835424e+00
4 4.512472e+00 1.158383e+01 4.935754e+00
4 4.523035e+00 1.295301e+01 5.385942e+00
4 4.353434e+00 1.018872e+01 7.959475e+00
4 4.510227e+00 9.488040e+00 5.519514e+00
4 4.518113e+00 1.137395e+01 3.886304e+00
4 4.593902e+00 1.372768e+01 4.646398e+00
4 4.346134e+00 1.425487e+01 7.121843e+00
4 4.094769e+00 1.240143e+01 8.697921e+00
5 3.766642e+00 9.877753e+00 1.260880e+01
5 4.913547e+00 1.073932e+01 1.257579e+01
5 5.816653e+00 1.052263e+01 1.153100e+01
5 5.738381e+00 9.526768e+00 1.051275e+01
5 4.544213e+00 8.769036e+00 1.056906e+01
5 3.585098e+00 8.862824e+00 1.160900e+01
5 6.676156e+00 1.113270e+01 1.148951e+01
5 6.493475e+00 9.363987e+00 9.745390e+00
5 4.399593e+00 8.020461e+00 9.838439e+00
5 2.715231e+00 8.219192e+00 1.167970e+01
5 3.042622e+00 9.979177e+00 1.339765e+01
5 5.011494e+00 1.155374e+01 1.327542e+01
6 2.241459e+01 2.078928e+01 1.589332e+01
6 2.099827e+01 2.082220e+01 1.613161e+01
6 2.037489e+01 2.205458e+01 1.656406e+01
6 2.111078e+01 2.325794e+01 1.644009e+01
6 2.244587e+01 2.327648e+01 1.603319e+01
6 2.312803e+01 2.207578e+01 1.567173e+01
6 1.931897e+01 2.198601e+01 1.681023e+01
6 2.055463e+01 2.413254e+01 1.664117e+01
6 2.290957e+01 2.424557e+01 1.602105e+01
6 2.419443e+01 2.201212e+01 1.540884e+01
6 2.293613e+01 1.983590e+01 1.572986e+01
6 2.048203e+01 1.987136e+01 1.620298e+01
7 3.112420e+00 1.195445e+01 1.631720e+01
7 3.230754e+00 1.179363e+01 1.773558e+01
7 3.773196e+00 1.284678e+01 1.853691e+01
7 4.307068e+00 1.401668e+01 1.804053e+01
7 4.278806e+00 1.408413e+01 1.662086e+01
7 3.639589e+00 1.315434e+01 1.574935e+01
7 3.757108e+00 1.272517e+01 1.957316e+01
7 4.796447e+00 1.479600e+01 1.863070e+01
7 4.654387e+00 1.501395e+01 1.622322e+01
7 3.513056e+00 1.340486e+01 1.468758e+01
7 2.616417e+00 1.119065e+01 1.574191e+01
7 2.770524e+00 1.086497e+01 1.809225e+01
8 6.536113e+00 1.720949e+01 1.652875e+01
8 5.838179e+00 1.782929e+01 1.549112e+01
8 6.242182e+00 1.900652e+01 1.481357e+01
8 7.411245e+00 1.957624e+01 1.533346e+01
8 8.130777e+00 1.904143e+01 1.643085e+01
8 7.619111e+00 1.784559e+01 1.709919e+01
8 5.664664e+00 1.939579e+01 1.397326e+01
8 7.860552e+00 2.037448e+01 1.476389e+01
8 9.094859e+00 1.940661e+01 1.673659e+01
8 8.198909e+00 1.742027e+01 1.791019e+01
8 6.137074e+00 1.638335e+01 1.711942e+01
8 4.898116e+00 1.742803e+01 1.518830e+01
9 3.090179e+01 2.165337e+01 1.471800e+01
9 3.068515e+01 2.110592e+01 1.601662e+01
9 2.990449e+01 2.187406e+01 1.688321e+01
9 2.946526e+01 2.317510e+01 1.648918e+01
9 2.961150e+01 2.359805e+01 1.514378e+01
9 3.045306e+01 2.288018e+01 1.424407e+01
9 2.981577e+01 2.159880e+01 1.791136e+01
9 2.885789e+01 2.369624e+01 1.719608e+01
9 2.911676e+01 2.449621e+01 1.478226e+01
9 3.057071e+01 2.315564e+01 1.317912e+01
9 5.356352e-01 2.106323e+01 1.403845e+01
9 2.401467e-01 2.018598e+01 1.630843e+01
10 2.594561e+00 1.059945e+01 2.396532e+01
10 2.983405e+00 9.372217e+00 2.451614e+01
10 4.241208e+00 8.881578e+00 2.425299e+01
10 5.191941e+00 9.557073e+00 2.350878e+01
10 4.907659e+00 1.079499e+01 2.297173e+01
10 3.601103e+00 1.124288e+01 2.316388e+01
10 4.464935e+00 7.944062e+00 2.469923e+01
10 6.080622e+00 9.009385e+00 2.329368e+01
10 5.590047e+00 1.131146e+01 2.230832e+01
10 3.359293e+00 1.222207e+01 2.284512e+01
10 1.611411e+00 1.104436e+01 2.415749e+01
10 2.307576e+00 8.819883e+00 2.515539e+01
11 9.927223e+00 4.177800e+00 1.088180e+01
11 8.725692e+00 4.393978e+00 1.171332e+01
11 7.550388e+00 4.675428e+00 1.107430e+01
11 7.549378e+00 4.643545e+00 9.649297e+00
11 8.718186e+00 4.378162e+00 8.839968e+00
11 9.886588e+00 4.131587e+00 9.480979e+00
11 6.578737e+00 4.805499e+00 1.157361e+01
11 6.614413e+00 4.780575e+00 9.133592e+00
11 8.595572e+00 4.349588e+00 7.766845e+00
11 1.082781e+01 3.997454e+00 8.980376e+00
11 1.085866e+01 3.927040e+00 1.136889e+01
11 8.856929e+00 4.376724e+00 1.279252e+01
12 2.776169e+01 2.797053e+01 1.182683e+01
12 2.721791e+01 2.698593e+01 1.102680e+01
12 2.770790e+01 2.564913e+01 1.120345e+01
12 2.882351e+01 2.540355e+01 1.213875e+01
12 2.937835e+01 2.653956e+01 1.276852e+01
12 2.891026e+01 2.783387e+01 1.268565e+01
12 2.730798e+01 2.478186e+01 1.065523e+01
12 2.918657e+01 2.439657e+01 1.233570e+01
12 3.018756e+01 2.647535e+01 1.345481e+01
12 2.929144e+01 2.868358e+01 1.323789e+01
12 2.734154e+01 2.894516e+01 1.174089e+01
12 2.636602e+01 2.714529e+01 1.039309e+01
13 2.470410e+01 7.377922e+00 1.156115e+01
13 2.483493e+01 6.640005e+00 1.039762e+01
13 2.371281e+01 5.950880e+00 9.906125e+00
13 2.253413e+01 6.055106e+00 1.060070e+01
13 2.234444e+01 6.874193e+00 1.174550e+01
13 2.348307e+01 7.570485e+00 1.217268e+01
13 2.380741e+01 5.304258e+00 9.027968e+00
13 2.170321e+01 5.534679e+00 1.018993e+01
13 2.138422e+01 7.094459e+00 1.218717e+01
13 2.345219e+01 8.133822e+00 1.308215e+01
13 2.554906e+01 7.880726e+00 1.193384e+01
13 2.581821e+01 6.520549e+00 1.000614e+01
14 1.635908e+01 1.210925e-01 1.887874e+01
14 1.550579e+01 3.123751e-01 1.785069e+01
14 1.611040e+01 5.192135e-01 1.653319e+01
14 1.749678e+01 3.917725e-01 1.626274e+01
14 1.827928e+01 2.537875e-01 1.741334e+01
14 1.775655e+01 1.579687e-01 1.870742e+01
14 1.538309e+01 6.223999e-01 1.572259e+01
14 1.789300e+01 4.419547e-01 1.525058e+01
14 1.933768e+01 1.313227e-01 1.731499e+01
14 1.839644e+01 3.090045e+01 1.958070e+01
14 1.598250e+01 1.049611e-01 1.987715e+01
14 1.443976e+01 3.878716e-01 1.796929e+01
15 2.459121e+01 2.988181e+01 2.517653e+01
15 2.402072e+01 2.191210e-01 2.499423e+01
15 2.414222e+01 1.251349e+00 2.595086e+01
15 2.495089e+01 1.002496e+00 2.711700e+01
15 2.536767e+01 3.063177e+01 2.741779e+01
15 2.515005e+01 2.964513e+01 2.641723e+01
15 2.374655e+01 2.225116e+00 2.569974e+01
15 2.498478e+01 1.797374e+00 2.786693e+01
15 2.583658e+01 3.041309e+01 2.836287e+01
15 2.553350e+01 2.866433e+01 2.657753e+01
15 2.443446e+01 2.910483e+01 2.443640e+01
15 2.355382e+01 4.197146e-01 2.405342e+01
16 1.188378e+01 7.166577e+00 2.607660e+01
16 1.107283e+01 6.052751e+00 2.620942e+01
16 1.148172e+01 4.921078e+00 2.551814e+01
16 1.239868e+01 4.918668e+00 2.447354e+01
16 1.314904e+01 6.098552e+00 2.422969e+01
16 1.295564e+01 7.224084e+00 2.513482e+01
16 1.087711e+01 4.044224e+00 2.568463e+01
16 1.262024e+01 4.003984e+00 2.391681e+01
16 1.394463e+01 6.110324e+00 2.347912e+01
16 1.355724e+01 8.125678e+00 2.494752e+01
16 1.174148e+01 8.046922e+00 2.666022e+01
16 1.027298e+01 6.005756e+00 2.693123e+01
17 3.051538e+01 7.302311e+00 1.313143e+01
17 2.998620e+01 6.534616e+00 1.419886e+01
17 2.921431e+01 7.111179e+00 1.521461e+01
17 2.901548e+01 8.439436e+00 1.518230e+01
17 2.952896e+01 9.275872e+00 1.414330e+01
17 3.029976e+01 8.724968e+00 1.310337e+01
17 2.881378e+01 6.496526e+00 1.600194e+01
17 2.847530e+01 8.922937e+00 1.598480e+01
17 2.938037e+01 1.033823e+01 1.418826e+01
17 3.075291e+01 9.429540e+00 1.240413e+01
17 2.554227e-01 6.811241e+00 1.245537e+01
17 3.030369e+01 5.528988e+00 1.424771e+01
18 1.754631e+01 1.799692e+01 4.337485e-01
18 1.644363e+01 1.894687e+01 3.879907e-01
18 1.547697e+01 1.890549e+01 1.328025e+00
18 1.533603e+01 1.783521e+01 2.180534e+00
18 1.628847e+01 1.675525e+01 2.036753e+00
18 1.739638e+01 1.686894e+01 1.161302e+00
18 1.470996e+01 1.965500e+01 1.384805e+00
18 1.461114e+01 1.785653e+01 2.991206e+00
18 1.624399e+01 1.589270e+01 2.703831e+00
18 1.813919e+01 1.610912e+01 1.098065e+00
18 1.834184e+01 1.813961e+01 3.064289e+01
18 1.651010e+01 1.986367e+01 3.077556e+01
19 2.687561e+01 1.064020e+01 2.521690e+01
19 2.652664e+01 1.157827e+01 2.425378e+01
19 2.529294e+01 1.162235e+01 2.361562e+01
19 2.437550e+01 1.058349e+01 2.382348e+01
19 2.469023e+01 9.645592e+00 2.483758e+01
19 2.592641e+01 9.625055e+00 2.553979e+01
19 2.517773e+01 1.237837e+01 2.286973e+01
19 2.342383e+01 1.054446e+01 2.328572e+01
19 2.400002e+01 8.833111e+00 2.503460e+01
19 2.606961e+01 8.904472e+00 2.635305e+01
19 2.782791e+01 1.066305e+01 2.573477e+01
19 2.723277e+01 1.235846e+01 2.406692e+01
20 2.652394e+00 3.602456e+00 1.224320e+01
20 2.421595e+00 2.347063e+00 1.283732e+01
20 3.293014e+00 1.294761e+00 1.252169e+01
20 4.454012e+00 1.463730e+00 1.182448e+01
20 4.697381e+00 2.752089e+00 1.126178e+01
20 3.783235e+00 3.853447e+00 1.138572e+01
20 3.167025e+00 2.868879e-01 1.286833e+01
20 5.220361e+00 7.412057e-01 1.163268e+01
20 5.555226e+00 2.893234e+00 1.060840e+01
20 4.015472e+00 4.849761e+00 1.095455e+01
20 2.028038e+00 4.421382e+00 1.249377e+01
20 1.526062e+00 2.179802e+00 1.341432e+01
21 1.177296e+01 1.948554e+01 2.530398e+01
21 1.162725e+01 1.826489e+01 2.593723e+01
21 1.069353e+01 1.725442e+01 2.568431e+01
21 9.821552e+00 1.750340e+01 2.462415e+01
21 9.931815e+00 1.869340e+01 2.384600e+01
21 1.082663e+01 1.964712e+01 2.420320e+01
21 1.063152e+01 1.630180e+01 2.619767e+01
21 9.013258e+00 1.683511e+01 2.437705e+01
21 9.214286e+00 1.885479e+01 2.308077e+01
21 1.085596e+01 2.050877e+01 2.353977e+01
21 1.258126e+01 2.021879e+01 2.545063e+01
21 1.233923e+01 1.811101e+01 2.670164e+01
22 8.834745e+00 9.145969e+00 2.529493e+01
22 8.954218e+00 9.282691e+00 2.673753e+01
22 1.009920e+01 9.927138e+00 2.726200e+01
22 1.099715e+01 1.054871e+01 2.641777e+01
22 1.099113e+01 1.033525e+01 2.503883e+01
22 9.933974e+00 9.675233e+00 2.448225e+01
22 1.017624e+01 1.002034e+01 2.831567e+01
22 1.178922e+01 1.111482e+01 2.684702e+01
22 1.175428e+01 1.079902e+01 2.442229e+01
22 9.915418e+00 9.490805e+00 2.341971e+01
22 8.026164e+00 8.501146e+00 2.487072e+01
22 8.192721e+00 8.886313e+00 2.737809e+01
23 8.503558e+00 1.381881e+01 8.529530e+00
23 8.697153e+00 1.512511e+01 8.077778e+00
23 8.361434e+00 1.549811e+01 6.829086e+00
23 7.925514e+00 1.452793e+01 5.941247e+00
23 7.798420e+00 1.322135e+01 6.291326e+00
23 7.980946e+00 1.284658e+01 7.625514e+00
23 8.494560e+00 1.650189e+01 6.505919e+00
23 7.794644e+00 1.485029e+01 4.932074e+00
23 7.497186e+00 1.241646e+01 5.643054e+00
23 7.902755e+00 1.183532e+01 7.987971e+00
23 8.665429e+00 1.356546e+01 9.577714e+00
23 9.067528e+00 1.586342e+01 8.743999e+00
24 1.574190e+01 3.053881e+01 2.982265e+01
24 1.558635e+01 7.876043e-01 3.049046e+01
24 1.623023e+01 9.829087e-01 7.714996e-01
24 1.716844e+01 1.517835e-02 1.227300e+00
24 1.741452e+01 2.976577e+01 4.990235e-01
24 1.667784e+01 2.963074e+01 3.026743e+01
24 1.612826e+01 1.890752e+00 1.338950e+00
24 1.771351e+01 1.710035e-01 2.136219e+00
24 1.811890e+01 2.898587e+01 7.744043e-01
24 1.676248e+01 2.874312e+01 2.969884e+01
24 1.523918e+01 3.037970e+01 2.887018e+01
24 1.488595e+01 1.569602e+00 3.020827e+01
25 1.197021e+01 1.914677e+01 1.612820e+00
25 1.180277e+01 1.776198e+01 1.628846e+00
25 1.067535e+01 1.713810e+01 9.535278e-01
25 9.850274e+00 1.789815e+01 1.348518e-01
25 9.960222e+00 1.930175e+01 1.004447e-01
25 1.103458e+01 1.987724e+01 7.603435e-01
25 1.059405e+01 1.604947e+01 9.138599e-01
25 9.158894e+00 1.743925e+01 3.039249e+01
25 9.279424e+00 1.990640e+01 3.045367e+01
25 1.115160e+01 2.093319e+01 7.124040e-01
25 1.275341e+01 1.970080e+01 2.132894e+00
25 1.250177e+01 1.726530e+01 2.293365e+00
26 1.315547e+01 5.497159e+00 1.220200e+01
26 1.392193e+01 4.447039e+00 1.179606e+01
26 1.509414e+01 4.768568e+00 1.100931e+01
26 1.561226e+01 6.068526e+00 1.078080e+01
26 1.480939e+01 7.021111e+00 1.136274e+01
26 1.361358e+01 6.785328e+00 1.208749e+01
26 1.575000e+01 3.978824e+00 1.074462e+01
26 1.652785e+01 6.289055e+00 1.025839e+01
26 1.505410e+01 8.043575e+00 1.122591e+01
26 1.299357e+01 7.570963e+00 1.250182e+01
26 1.225599e+01 5.317204e+00 1.279063e+01
26 1.369355e+01 3.420416e+00 1.199661e+01
27 3.079416e+01 2.987588e+00 1.986445e+01
27 9.180136e-01 2.463383e+00 2.059008e+01
27 1.612956e+00 1.354688e+00 2.008320e+01
27 1.204600e+00 7.490784e-01 1.891850e+01
27 1.530203e-01 1.245576e+00 1.811798e+01
27 3.044938e+01 2.430869e+00 1.863045e+01
27 2.487835e+00 1.034892e+00 2.064731e+01
27 1.732989e+00 3.081228e+01 1.853322e+01
27 3.069419e+01 8.397955e-01 1.718326e+01
27 2.961184e+01 2.804189e+00 1.807426e+01
27 3.032219e+01 3.892644e+00 2.022093e+01
27 1.173213e+00 2.962769e+00 2.151709e+01
28 2.651677e+00 2.628573e+01 2.896421e+01
28 3.788072e+00 2.708644e+01 2.914744e+01
28 4.380225e+00 2.770844e+01 2.805102e+01
28 3.676424e+00 2.767760e+01 2.686117e+01
28 2.407236e+00 2.703402e+01 2.670186e+01
28 1.881712e+00 2.630242e+01 2.779492e+01
28 5.282972e+00 2.826037e+01 2.811724e+01
28 4.046754e+00 2.828914e+01 2.607360e+01
28 1.840027e+00 2.705583e+01 2.577861e+01
28 9.537350e-01 2.572625e+01 2.778103e+01
28 2.269987e+00 2.576514e+01 2.983040e+01
28 4.334036e+00 2.704330e+01 3.006023e+01
29 2.314963e+01 2.609246e+01 7.864913e+00
29 2.257532e+01 2.662365e+01 6.676413e+00
29 2.148860e+01 2.739790e+01 6.643050e+00
29 2.069945e+01 2.760162e+01 7.824588e+00
29 2.120034e+01 2.707899e+01 9.055115e+00
29 2.242572e+01 2.627431e+01 9.062214e+00
29 2.110020e+01 2.775568e+01 5.714071e+00
29 1.976200e+01 2.814452e+01 7.785509e+00
29 2.063788e+01 2.714714e+01 9.971415e+00
29 2.280474e+01 2.587361e+01 9.983859e+00
29 2.407795e+01 2.553438e+01 7.875401e+00
29 2.315140e+01 2.646965e+01 5.790752e+00
30 4.353390e+00 2.216986e+01 1.776270e+01
30 4.886511e+00 2.086580e+01 1.797243e+01
30 4.003299e+00 1.987777e+01 1.831148e+01
30 2.680562e+00 2.009418e+01 1.854619e+01
30 2.180995e+00 2.139195e+01 1.826578e+01
30 3.039266e+00 2.245661e+01 1.799403e+01
30 4.477595e+00 1.896815e+01 1.844460e+01
30 2.003491e+00 1.930083e+01 1.889984e+01
30 1.114882e+00 2.154377e+01 1.831912e+01
30 2.679428e+00 2.344888e+01 1.779748e+01
30 5.015824e+00 2.295472e+01 1.748832e+01
30 5.953797e+00 2.077055e+01 1.785007e+01
31 8.994615e+00 3.673771e+00 4.565496e-01
31 9.867580e+00 2.778980e+00 1.168887e+00
31 9.568705e+00 2.512524e+00 2.510892e+00
31 8.480358e+00 3.185684e+00 3.230199e+00
31 7.696541e+00 4.056536e+00 2.480678e+00
31 8.029119e+00 4.384494e+00 1.115553e+00
31 1.017792e+01 1.832243e+00 3.077893e+00
31 8.314666e+00 2.976555e+00 4.280516e+00
31 6.907001e+00 4.636399e+00 2.932276e+00
31 7.398251e+00 5.145244e+00 6.185889e-01
31 9.284481e+00 3.894053e+00 3.037723e+01
31 1.065917e+01 2.243316e+00 6.608402e-01
32 2.060483e+00 2.736232e+01 1.988870e+01
32 2.503694e+00 2.694179e+01 1.863899e+01
32 1.809707e+00 2.591168e+01 1.804856e+01
32 7.179821e-01 2.522716e+01 1.867264e+01
32 2.467304e-01 2.574488e+01 1.998820e+01
32 9.806192e-01 2.675181e+01 2.052065e+01
32 2.141135e+00 2.550510e+01 1.710444e+01
32 1.630642e-01 2.438638e+01 1.824749e+01
32 3.028383e+01 2.530987e+01 2.046179e+01
32 6.497474e-01 2.727595e+01 2.140344e+01
32 2.578914e+00 2.817344e+01 2.036160e+01
32 3.378648e+00 2.739305e+01 1.815396e+01
33 1.997115e+00 3.433363e-01 6.719335e+00
33 2.083071e+00 1.329627e+00 5.698449e+00
33 1.666193e+00 1.039516e+00 4.351178e+00
33 1.101510e+00 3.071910e+01 4.010654e+00
33 8.995456e-01 2.983977e+01 5.016337e+00
33 1.471604e+00 3.001042e+01 6.265312e+00
33 1.823119e+00 1.835353e+00 3.639039e+00
33 8.660258e-01 3.053200e+01 2.979939e+00
33 4.946989e-01 2.890132e+01 4.700459e+00
33 1.248353e+00 2.923708e+01 6.974845e+00
33 2.193639e+00 4.826606e-01 7.785023e+00
33 2.533145e+00 2.269248e+00 6.001591e+00
34 3.298178e+00 5.676596e+00 2.761910e+01
34 2.514113e+00 5.794260e+00 2.878112e+01
34 1.149995e+00 6.014146e+00 2.870565e+01
34 5.990778e-01 6.167979e+00 2.744449e+01
34 1.312515e+00 6.077400e+00 2.625440e+01
34 2.672892e+00 5.741632e+00 2.639976e+01
34 5.736328e-01 6.105274e+00 2.959532e+01
34 3.053102e+01 6.434753e+00 2.734801e+01
34 8.507427e-01 6.179169e+00 2.528676e+01
34 3.281447e+00 5.654914e+00 2.552325e+01
34 4.331354e+00 5.381474e+00 2.759081e+01
34 2.944815e+00 5.603818e+00 2.974623e+01
35 1.590135e+01 1.606596e+00 6.375143e+00
35 1.523140e+01 6.578747e-01 7.140224e+00
35 1.435333e+01 1.147869e+00 8.133161e+00
35 1.398462e+01 2.506769e+00 8.325017e+00
35 1.468239e+01 3.444930e+00 7.545920e+00
35 1.566819e+01 3.009249e+00 6.600836e+00
35 1.384183e+01 5.029843e-01 8.783174e+00
35 1.330699e+01 2.755869e+00 9.147165e+00
35 1.444775e+01 4.499385e+00 7.654145e+00
35 1.609608e+01 3.792924e+00 5.969641e+00
35 1.656031e+01 1.243325e+00 5.610179e+00
35 1.539386e+01 3.050998e+01 7.113520e+00
36 1.354431e+01 1.488548e+01 1.009159e+01
36 1.475262e+01 1.549191e+01 1.052552e+01
36 1.598069e+01 1.528799e+01 9.725057e+00
36 1.592408e+01 1.442089e+01 8.602005e+00
36 1.469241e+01 1.381937e+01 8.200277e+00
36 1.348187e+01 1.398965e+01 9.005474e+00
36 1.690177e+01 1.584640e+01 9.973578e+00
36 1.682934e+01 1.415551e+01 8.032060e+00
36 1.459003e+01 1.319618e+01 7.306280e+00
36 1.255821e+01 1.351654e+01 8.669652e+00
36 1.269880e+01 1.509648e+01 1.068882e+01
36 1.488213e+01 1.612275e+01 1.141871e+01
37 2.742106e+01 1.495999e+01 3.350605e+00
37 2.633438e+01 1.430539e+01 4.076773e+00
37 2.591706e+01 1.305428e+01 3.597675e+00
37 2.663710e+01 1.237765e+01 2.586582e+00
37 2.771020e+01 1.302649e+01 1.923429e+00
37 2.810754e+01 1.431247e+01 2.282395e+00
37 2.513811e+01 1.261894e+01 4.225601e+00
37 2.638560e+01 1.135870e+01 2.310192e+00
37 2.824243e+01 1.254302e+01 1.125779e+00
37 2.893726e+01 1.484906e+01 1.873661e+00
37 2.777186e+01 1.591941e+01 3.737893e+00
37 2.583482e+01 1.479574e+01 4.917258e+00
38 2.342067e+01 2.906639e+01 1.642855e+01
38 2.234599e+01 2.985453e+01 1.665937e+01
38 2.214592e+01 3.092503e+01 1.585247e+01
38 2.295982e+01 3.823943e-01 1.482629e+01
38 2.409790e+01 3.052276e+01 1.458398e+01
38 2.434741e+01 2.938445e+01 1.542346e+01
38 2.122219e+01 4.912001e-01 1.593006e+01
38 2.273324e+01 1.264748e+00 1.423610e+01
38 2.483009e+01 3.076971e+01 1.385056e+01
38 2.525675e+01 2.882329e+01 1.526583e+01
38 2.366151e+01 2.822024e+01 1.704514e+01
38 2.165140e+01 2.958685e+01 1.740248e+01
39 2.654235e+00 7.697505e-01 2.711874e+01
39 2.841556e+00 2.051287e+00 2.652490e+01
39 2.295915e+00 2.446625e+00 2.523949e+01
39 1.596811e+00 1.446189e+00 2.449692e+01
39 1.407589e+00 1.862287e-01 2.511284e+01
39 1.923241e+00 3.079029e+01 2.637301e+01
39 2.537995e+00 3.433596e+00 2.484371e+01
39 1.275237e+00 1.735452e+00 2.349684e+01
39 7.791195e-01 3.040032e+01 2.462806e+01
39 1.698318e+00 2.984597e+01 2.679924e+01
39 3.009613e+00 5.421271e-01 2.812896e+01
39 3.392684e+00 2.762395e+00 2.711146e+01
40 6.895549e+00 2.506938e+01 5.313135e+00
40 8.269471e+00 2.513757e+01 4.982445e+00
40 8.695376e+00 2.529535e+01 3.701558e+00
40 7.778684e+00 2.514906e+01 2.592388e+00
40 6.427755e+00 2.490853e+01 2.934788e+00
40 5.974404e+00 2.504959e+01 4.285245e+00
40 9.752299e+00 2.534384e+01 3.465075e+00
40 8.143984e+00 2.523880e+01 1.550018e+00
40 5.740747e+00 2.479449e+01 2.128815e+00
40 4.906655e+00 2.494545e+01 4.446834e+00
40 6.641788e+00 2.510222e+01 6.356947e+00
40 9.026371e+00 2.523075e+01 5.711103e+00
41 2.475246e+01 4.781155e+00 1.401474e+01
41 2.350131e+01 4.222310e+00 1.403173e+01
41 2.255798e+01 4.717067e+00 1.492738e+01
41 2.271827e+01 5.853320e+00 1.570406e+01
41 2.397775e+01 6.563304e+00 1.558945e+01
41 2.501225e+01 6.010931e+00 1.468680e+01
41 2.162450e+01 4.227337e+00 1.496034e+01
41 2.192530e+01 6.245061e+00 1.635297e+01
41 2.410897e+01 7.505238e+00 1.610678e+01
41 2.592676e+01 6.598715e+00 1.454336e+01
41 2.541188e+01 4.362131e+00 1.326906e+01
41 2.325924e+01 3.380561e+00 1.344022e+01
42 1.688813e+01 2.770002e+00 2.264804e+01
42 1.807847e+01 3.373173e+00 2.216623e+01
42 1.885060e+01 4.372242e+00 2.293190e+01
42 1.821875e+01 4.824751e+00 2.410028e+01
42 1.694185e+01 4.250596e+00 2.452007e+01
42 1.628554e+01 3.178943e+00 2.385849e+01
42 1.986156e+01 4.703536e+00 2.262596e+01
42 1.870311e+01 5.576419e+00 2.470502e+01
42 1.654699e+01 4.608745e+00 2.544331e+01
42 1.533571e+01 2.772721e+00 2.418969e+01
42 1.640313e+01 2.006952e+00 2.205260e+01
42 1.858978e+01 3.037721e+00 2.126420e+01
43 1.080254e+01 9.521077e+00 1.087663e+01
43 1.019262e+01 9.971329e+00 1.202046e+01
43 9.901224e+00 1.137496e+01 1.209458e+01
43 1.019386e+01 1.228135e+01 1.108113e+01
43 1.081260e+01 1.170403e+01 9.943181e+00
43 1.112715e+01 1.034950e+01 9.809439e+00
43 9.509943e+00 1.171992e+01 1.304941e+01
43 9.886052e+00 1.333470e+01 1.113969e+01
43 1.101931e+01 1.240309e+01 9.151282e+00
43 1.171407e+01 9.948925e+00 8.983180e+00
43 1.105293e+01 8.497667e+00 1.089058e+01
43 1.000426e+01 9.316766e+00 1.285737e+01
44 1.542831e+01 2.091872e+01 5.022745e+00
44 1.409493e+01 2.058326e+01 4.716401e+00
44 1.328424e+01 2.157200e+01 4.080386e+00
44 1.377577e+01 2.285783e+01 3.863011e+00
44 1.512320e+01 2.318599e+01 4.202942e+00
44 1.590855e+01 2.217121e+01 4.806764e+00
44 1.222579e+01 2.144348e+01 3.872403e+00
44 1.308638e+01 2.354992e+01 3.431578e+00
44 1.548120e+01 2.418421e+01 3.941539e+00
44 1.695419e+01 2.236266e+01 4.985334e+00
44 1.607601e+01 2.018572e+01 5.468734e+00
44 1.365828e+01 1.961771e+01 4.953654e+00
45 3.453955e+00 2.221206e+01 1.407427e+01
45 3.275607e+00 2.206806e+01 1.267398e+01
45 2.458600e+00 2.302219e+01 1.196449e+01
45 2.021819e+00 2.419702e+01 1.251665e+01
45 2.208078e+00 2.435154e+01 1.389184e+01
45 2.922775e+00 2.335370e+01 1.463727e+01
45 2.291387e+00 2.293028e+01 1.091462e+01
45 1.465843e+00 2.486884e+01 1.188088e+01
45 1.758964e+00 2.519629e+01 1.442103e+01
45 3.040533e+00 2.343327e+01 1.571110e+01
45 4.018970e+00 2.150723e+01 1.469240e+01
45 3.664406e+00 2.121547e+01 1.210645e+01
46 1.174881e+01 8.914324e+00 4.643033e-02
46 1.154055e+01 1.026816e+01 3.062936e+01
46 1.034830e+01 1.100513e+01 3.080176e+01
46 9.216806e+00 1.036473e+01 5.847388e-01
46 9.374577e+00 8.986102e+00 8.490114e-01
46 1.063345e+01 8.316783e+00 6.505055e-01
46 1.025535e+01 1.203535e+01 3.040180e+01
46 8.278040e+00 1.092742e+01 8.161742e-01
46 8.547432e+00 8.472291e+00 1.296987e+00
46 1.070157e+01 7.296347e+00 9.652047e-01
46 1.267183e+01 8.332557e+00 3.081993e+01
46 1.240102e+01 1.065863e+01 3.010398e+01
47 1.747007e+01 9.103845e+00 1.503963e+00
47 1.873993e+01 8.687033e+00 1.181616e+00
47 1.903074e+01 7.657928e+00 1.894879e-01
47 1.793232e+01 7.147036e+00 3.041620e+01
47 1.662615e+01 7.578851e+00 3.071369e+01
47 1.642540e+01 8.535289e+00 7.743464e-01
47 2.006468e+01 7.370762e+00 3.090899e+01
47 1.803293e+01 6.413641e+00 2.961019e+01
47 1.576820e+01 7.246983e+00 3.015940e+01
47 1.543237e+01 8.884102e+00 9.791373e-01
47 1.722391e+01 9.866279e+00 2.219604e+00
47 1.952484e+01 9.136645e+00 1.740451e+00
48 8.193961e+00 1.270250e+01 2.251229e+01
48 8.720370e+00 1.399316e+01 2.261457e+01
48 8.856914e+00 1.496246e+01 2.152596e+01
48 8.407248e+00 1.452428e+01 2.027648e+01
48 8.068299e+00 1.316866e+01 2.005518e+01
48 7.839694e+00 1.229528e+01 2.116256e+01
48 9.257746e+00 1.595823e+01 2.175042e+01
48 8.433996e+00 1.520878e+01 1.943000e+01
48 7.787884e+00 1.282185e+01 1.908047e+01
48 7.551756e+00 1.126681e+01 2.097548e+01
48 8.187730e+00 1.195940e+01 2.330058e+01
48 9.022152e+00 1.424577e+01 2.360518e+01
49 2.237608e+00 1.912901e+01 6.272711e+00
49 2.268209e+00 1.836762e+01 5.060923e+00
49 1.699926e+00 1.708222e+01 5.021985e+00
49 9.839366e-01 1.659239e+01 6.113111e+00
49 7.022624e-01 1.747125e+01 7.158090e+00
49 1.297752e+00 1.874209e+01 7.295739e+00
49 1.819965e+00 1.640119e+01 4.188335e+00
49 5.492433e-01 1.562100e+01 6.050604e+00
49 1.251603e-01 1.699243e+01 7.933061e+00
49 1.261296e+00 1.930934e+01 8.198749e+00
49 2.736958e+00 2.006291e+01 6.323133e+00
49 2.904312e+00 1.871692e+01 4.256750e+00
50 1.004476e+01 1.950707e+01 2.029297e+01
50 8.742231e+00 1.888580e+01 2.023450e+01
50 7.531814e+00 1.950802e+01 2.010500e+01
50 7.559885e+00 2.089449e+01 2.015995e+01
50 8.830239e+00 2.164394e+01 2.027966e+01
50 1.003475e+01 2.092829e+01 2.036902e+01
50 6.595797e+00 1.894712e+01 2.000694e+01
50 6.646705e+00 2.146495e+01 2.010729e+01
50 8.841030e+00 2.273065e+01 2.042683e+01
50 1.097463e+01 2.142077e+01 2.054674e+01
50 1.094557e+01 1.889274e+01 2.042395e+01
50 8.800539e+00 1.783349e+01 2.022742e+01
51 1.281034e+01 2.593286e+01 2.168384e+01
51 1.257778e+01 2.459543e+01 2.146501e+01
51 1.322906e+01 2.356410e+01 2.217806e+01
51 1.423747e+01 2.387906e+01 2.308054e+01
51 1.461779e+01 2.526640e+01 2.323832e+01
51 1.390243e+01 2.631106e+01 2.256669e+01
51 1.297171e+01 2.255867e+01 2.194131e+01
51 1.483685e+01 2.312789e+01 2.355687e+01
51 1.542041e+01 2.554059e+01 2.393748e+01
51 1.413985e+01 2.739316e+01 2.271160e+01
51 1.224308e+01 2.666896e+01 2.113983e+01
51 1.187106e+01 2.433650e+01 2.070652e+01
52 1.561867e+01 1.717591e+01 2.544903e+01
52 1.690098e+01 1.738528e+01 2.478270e+01
52 1.774843e+01 1.630466e+01 2.470844e+01
52 1.741811e+01 1.495181e+01 2.517449e+01
52 1.606481e+01 1.482613e+01 2.568064e+01
52 1.516097e+01 1.588508e+01 2.572890e+01
52 1.877500e+01 1.644861e+01 2.439441e+01
52 1.814744e+01 1.415218e+01 2.510537e+01
52 1.569842e+01 1.391655e+01 2.611132e+01
52 1.418028e+01 1.584747e+01 2.618990e+01
52 1.497598e+01 1.804494e+01 2.546755e+01
52 1.721853e+01 1.838353e+01 2.448549e+01
53 2.813953e+01 1.008276e+01 2.897307e+01
53 2.768652e+01 9.538855e+00 3.025213e+01
53 2.856637e+01 8.790334e+00 9.991926e-02
53 2.985147e+01 8.557014e+00 3.043340e+01
53 3.024978e+01 9.012279e+00 2.917211e+01
53 2.939254e+01 9.789701e+00 2.848198e+01
53 2.830142e+01 8.409612e+00 1.082794e+00
53 3.054175e+01 7.915012e+00 3.943930e-02
53 2.917891e-01 8.790505e+00 2.876135e+01
53 2.966606e+01 1.013865e+01 2.751569e+01
53 2.746701e+01 1.072661e+01 2.844095e+01
53 2.667459e+01 9.773162e+00 3.061559e+01
54 1.251224e+01 8.255590e+00 4.707056e+00
54 1.378147e+01 7.949322e+00 4.154647e+00
54 1.477939e+01 7.451912e+00 5.018364e+00
54 1.442857e+01 7.087306e+00 6.325074e+00
54 1.321533e+01 7.402090e+00 6.846765e+00
54 1.218798e+01 7.988927e+00 6.107222e+00
54 1.578233e+01 7.246028e+00 4.665005e+00
54 1.515568e+01 6.694352e+00 6.980436e+00
54 1.303154e+01 7.162907e+00 7.870140e+00
54 1.119660e+01 8.228017e+00 6.489725e+00
54 1.178303e+01 8.749623e+00 4.095627e+00
54 1.398546e+01 8.173034e+00 3.118908e+00
55 1.005056e+01 2.792993e+01 1.216758e+01
55 9.996732e+00 2.820223e+01 1.351355e+01
55 9.239791e+00 2.741763e+01 1.437852e+01
55 8.442386e+00 2.638343e+01 1.387299e+01
55 8.413046e+00 2.609990e+01 1.249754e+01
55 9.176637e+00 2.694056e+01 1.160143e+01
55 9.172502e+00 2.761652e+01 1.544265e+01
55 7.738627e+00 2.583098e+01 1.448210e+01
55 7.748664e+00 2.536201e+01 1.205210e+01
55 9.102784e+00 2.670431e+01 1.054772e+01
55 1.074366e+01 2.841311e+01 1.149562e+01
55 1.065765e+01 2.892357e+01 1.396534e+01
56 2.436313e+01 3.448932e-01 1.164486e+00
56 2.383862e+01 1.179627e+00 1.769353e-01
56 2.365032e+01 2.618941e+00 4.659761e-01
56 2.385759e+01 3.059805e+00 1.791913e+00
56 2.440897e+01 2.237715e+00 2.785596e+00
56 2.460107e+01 8.207246e-01 2.514155e+00
56 2.323959e+01 3.318856e+00 3.065206e+01
56 2.371552e+01 4.091098e+00 1.965676e+00
56 2.469816e+01 2.622319e+00 3.744516e+00
56 2.507312e+01 1.732239e-01 3.222746e+00
56 2.453994e+01 3.021341e+01 9.729763e-01
56 2.360046e+01 7.649366e-01 3.014688e+01
57 2.925126e+01 1.023373e+00 1.398571e+01
57 2.907613e+01 1.100209e+00 1.262220e+01
57 2.785969e+01 1.422039e+00 1.210592e+01
57 2.689817e+01 1.922300e+00 1.294560e+01
57 2.711401e+01 1.937535e+00 1.429643e+01
57 2.825306e+01 1.410765e+00 1.491451e+01
57 2.771973e+01 1.362190e+00 1.105538e+01
57 2.599079e+01 2.212430e+00 1.247046e+01
57 2.628063e+01 2.176103e+00 1.494284e+01
57 2.844975e+01 1.273680e+00 1.597313e+01
57 3.014745e+01 5.890336e-01 1.437628e+01
57 2.988015e+01 7.573161e-01 1.200902e+01
58 9.897087e+00 1.880105e+01 4.672072e+00
58 1.018992e+01 1.969501e+01 5.719634e+00
58 9.457260e+00 2.094475e+01 5.730926e+00
58 8.449596e+00 2.120501e+01 4.802628e+00
58 8.178957e+00 2.017209e+01 3.799109e+00
58 8.861016e+00 1.897269e+01 3.777059e+00
58 9.747983e+00 2.167575e+01 6.463508e+00
58 7.885817e+00 2.211617e+01 4.778640e+00
58 7.376271e+00 2.043501e+01 3.088700e+00
58 8.642248e+00 1.822501e+01 3.051702e+00
58 1.042356e+01 1.788062e+01 4.614012e+00
58 1.098336e+01 1.949179e+01 6.426198e+00
59 7.539937e+00 2.883026e+01 1.089894e+00
59 7.058559e+00 2.791275e+01 8.266877e-02
59 7.482284e+00 2.805809e+01 2.972951e+01
59 8.213938e+00 2.924879e+01 2.931026e+01