# Bulk Water Properties
# Trajectory calculated using DL_POLY Classic v1.9

# Potential uses SPC/Fw parameters:
# 
# Yujie Wu, Harald L. Tepper and Gregory A. Voth
# "Flexible simple point-charge water model with improved liquid-state properties", Journal of Chemical Physics 124 024503 (2006)
# http://dx.doi.org/10.1063/1.2136877
# 
#	  sigma(O) =    3.165492 Angstroms
#	epsilon(O) =    0.6503	 kJ/mol
#	 charge(O) =   -0.82	 e
#	 charge(H) =    0.41	 e
#	    k(O-H) = 4431.53	 kJ mol-1 Angstrom-2
#	    r(O-H) =    1.0	 Angstroms
#	  k(H-O-H) =  317.5656	 kJ mol-1 radian-2
#     theta(H-O-H) =  113.24	 degrees

#------------------------#
#  Define Master Terms   #
#------------------------#

Master
  Bond   OH   Harmonic  4431.53  1.0
  Angle  HOH  Harmonic  317.5656 113.24
EndMaster

#------------------------#
#     Define Species     #
#------------------------#

Species 'Water'
  # Atoms
  Atom    1    H     0.757    0.013    0.217   'HW'
  Atom    2    O     0.015   -0.009   -0.373   'OW'
  Atom    3    H    -0.771   -0.003    0.157   'HW'

  # Intramolecular Terms
  Bond  1    2  @OH
  Bond  3    2  @OH
  Angle 1    2    3  @HOH

  # Isotopologues
  Isotopologue  'Deuteriated'  OW=0  HW=2

  # Analysis Sites
  Site  'origin'
    Origin  2
    XAxis  1 3
    YAxis  3
  EndSite
  Site  'O'
    Origin  2
  EndSite
  Site  'COM'
    Origin  1  2  3
    OriginMassWeighted  True
  EndSite
EndSpecies

#------------------------#
#     Pair Potentials    #
#------------------------#

PairPotentials
  Range  9.000000
  Delta  0.050000
  Parameters  'OW'  O  -0.82  LJGeometric    0.65	3.165492
  Parameters  'HW'  H  0.41   LJGeometric    0.0      0.0
EndPairPotentials

#------------------------#
#  Define Configuration  #
#------------------------#

Configuration  'Bulk'
  Generator
    Box
      Lengths  20.0  20.0  20.0
    EndBox
    Add
      Species  'Water'
      Population  267
      BoxAction  None
    EndAdd
  EndGenerator
EndConfiguration

#------------------------#
#   Define Processing    #
#------------------------#

Layer  'Processing'

# Trajectory Processing
Module  ImportTrajectory  'ImportTrajectory01'
  Configuration  'Bulk'

  # Trajectory file contains 95 frames
  Format  xyz  'dlpoly/water267-analysis/water-267-298K.xyz'
  EndFormat
EndModule

# Oxygen-oxygen coordination number 
Module  HistogramCN  'CN(COM-COM)'
  Configuration  'Bulk'
  SiteA  Water  'COM'
  SiteB  Water  'COM'
  DistanceRange  0.0  3.4
EndModule

# Oxygen-oxygen coordination number (using Analysis module)
Module  Analyse  'CN(COM-COM)-Analyser'
  Configuration  'Bulk'
  Analyser
    Select  'COM1'
      Site  Water  'COM'
      ForEach
        Select  'COM2'
          Site  Water  'COM'
          ExcludeSameMolecule  'COM1'
	  ReferenceSite  'COM1'
          InclusiveRange  0.0  3.4
        EndSelect
        CalculateExpression  count
          Expression  COM2.nSelected
        EndCalculateExpression
        IntegerCollect1D  'HistoCN'
          QuantityX  'count'
        EndIntegerCollect1D
      EndForEach
    EndSelect
    Process1D  'CN'
      SourceIntegerData  'HistoCN'
      LabelValue  'gOO(r)'
      LabelX  'r, Angstroms'
      Normalisation
        OperateNormalise
        EndOperateNormalise
      EndNormalisation
    EndProcess1D
  EndAnalyser
EndModule

EndLayer
